 Entering Gaussian System, Link 0=g09
 Initial command:
 /aplic/Gaussian/g09d01_prebuilt_iqtc01/g09/l1.exe "/scratch/97457.1.iqtc01.q/Gau-18367.inp" -scrdir="/scratch/97457.1.iqtc01.q/"
 Entering Link 1 = /aplic/Gaussian/g09d01_prebuilt_iqtc01/g09/l1.exe PID=     18369.
  
 Copyright (c) 1988,1990,1992,1993,1995,1998,2003,2009,2013,
            Gaussian, Inc.  All Rights Reserved.
  
 This is part of the Gaussian(R) 09 program.  It is based on
 the Gaussian(R) 03 system (copyright 2003, Gaussian, Inc.),
 the Gaussian(R) 98 system (copyright 1998, Gaussian, Inc.),
 the Gaussian(R) 94 system (copyright 1995, Gaussian, Inc.),
 the Gaussian 92(TM) system (copyright 1992, Gaussian, Inc.),
 the Gaussian 90(TM) system (copyright 1990, Gaussian, Inc.),
 the Gaussian 88(TM) system (copyright 1988, Gaussian, Inc.),
 the Gaussian 86(TM) system (copyright 1986, Carnegie Mellon
 University), and the Gaussian 82(TM) system (copyright 1983,
 Carnegie Mellon University). Gaussian is a federally registered
 trademark of Gaussian, Inc.
  
 This software contains proprietary and confidential information,
 including trade secrets, belonging to Gaussian, Inc.
  
 This software is provided under written license and may be
 used, copied, transmitted, or stored only in accord with that
 written license.
  
 The following legend is applicable only to US Government
 contracts under FAR:
  
                    RESTRICTED RIGHTS LEGEND
  
 Use, reproduction and disclosure by the US Government is
 subject to restrictions as set forth in subparagraphs (a)
 and (c) of the Commercial Computer Software - Restricted
 Rights clause in FAR 52.227-19.
  
 Gaussian, Inc.
 340 Quinnipiac St., Bldg. 40, Wallingford CT 06492
  
  
 ---------------------------------------------------------------
 Warning -- This program may not be used in any manner that
 competes with the business of Gaussian, Inc. or will provide
 assistance to any competitor of Gaussian, Inc.  The licensee
 of this program is prohibited from giving any competitor of
 Gaussian, Inc. access to this program.  By using this program,
 the user acknowledges that Gaussian, Inc. is engaged in the
 business of creating and licensing software in the field of
 computational chemistry and represents and warrants to the
 licensee that it is not a competitor of Gaussian, Inc. and that
 it will not use this program in any manner prohibited above.
 ---------------------------------------------------------------
  

 Cite this work as:
 Gaussian 09, Revision D.01,
 M. J. Frisch, G. W. Trucks, H. B. Schlegel, G. E. Scuseria, 
 M. A. Robb, J. R. Cheeseman, G. Scalmani, V. Barone, B. Mennucci, 
 G. A. Petersson, H. Nakatsuji, M. Caricato, X. Li, H. P. Hratchian, 
 A. F. Izmaylov, J. Bloino, G. Zheng, J. L. Sonnenberg, M. Hada, 
 M. Ehara, K. Toyota, R. Fukuda, J. Hasegawa, M. Ishida, T. Nakajima, 
 Y. Honda, O. Kitao, H. Nakai, T. Vreven, J. A. Montgomery, Jr., 
 J. E. Peralta, F. Ogliaro, M. Bearpark, J. J. Heyd, E. Brothers, 
 K. N. Kudin, V. N. Staroverov, T. Keith, R. Kobayashi, J. Normand, 
 K. Raghavachari, A. Rendell, J. C. Burant, S. S. Iyengar, J. Tomasi, 
 M. Cossi, N. Rega, J. M. Millam, M. Klene, J. E. Knox, J. B. Cross, 
 V. Bakken, C. Adamo, J. Jaramillo, R. Gomperts, R. E. Stratmann, 
 O. Yazyev, A. J. Austin, R. Cammi, C. Pomelli, J. W. Ochterski, 
 R. L. Martin, K. Morokuma, V. G. Zakrzewski, G. A. Voth, 
 P. Salvador, J. J. Dannenberg, S. Dapprich, A. D. Daniels, 
 O. Farkas, J. B. Foresman, J. V. Ortiz, J. Cioslowski, 
 and D. J. Fox, Gaussian, Inc., Wallingford CT, 2013.
 
 ******************************************
 Gaussian 09:  AM64L-G09RevD.01 24-Apr-2013
                 3-Feb-2021 
 ******************************************
 %mem=3GB
 %NProcShared=4
 Will use up to    4 processors via shared memory.
 %chk=DPNA.chk
 ------------------------
 #P B3LYP/6-311G opt freq
 ------------------------
 1/14=-1,18=20,19=15,26=3,38=1/1,3;
 2/9=110,12=2,17=6,18=5,40=1/2;
 3/5=4,6=6,11=2,16=1,25=1,30=1,71=1,74=-5/1,2,3;
 4//1;
 5/5=2,38=5/2;
 6/7=2,8=2,9=2,10=2,28=1/1;
 7//1,2,3,16;
 1/14=-1,18=20,19=15,26=3/3(2);
 2/9=110/2;
 99//99;
 2/9=110/2;
 3/5=4,6=6,11=2,16=1,25=1,30=1,71=1,74=-5/1,2,3;
 4/5=5,16=3,69=1/1;
 5/5=2,38=5/2;
 7//1,2,3,16;
 1/14=-1,18=20,19=15,26=3/3(-5);
 2/9=110/2;
 6/7=2,8=2,9=2,10=2,19=2,28=1/1;
 99/9=1/99;
 Leave Link    1 at Wed Feb  3 17:17:46 2021, MaxMem=   402653184 cpu:         0.2
 (Enter /aplic/Gaussian/g09d01_prebuilt_iqtc01/g09/l101.exe)
 ----
 DPNA
 ----
 Symbolic Z-matrix:
 Charge =  0 Multiplicity = 1
 C
 C                    1    r2
 C                    2    r3       1    a3
 C                    3    r4       2    a4       1    d4       0
 C                    4    r5       3    a5       2    d5       0
 C                    5    r6       4    a6       3    d6       0
 N                    1    r7       2    a7       3    d7       0
 O                    7    r8       1    a8       2    d8       0
 O                    7    r9       1    a9       2    d9       0
 N                    4    r10      3    a10      2    d10      0
 C                    10   r11      4    a11      3    d11      0
 C                    10   r12      4    a12      3    d12      0
 H                    11   r13      10   a13      4    d13      0
 H                    11   r14      10   a14      4    d14      0
 H                    11   r15      10   a15      4    d15      0
 H                    12   r16      10   a16      4    d16      0
 H                    12   r17      10   a17      4    d17      0
 H                    12   r18      10   a18      4    d18      0
       Variables:
  r2                    1.4                      
  r3                    1.4                      
  a3                  120.                       
  r4                    1.4                      
  a4                  120.                       
  d4                    0.                       
  r5                    1.4                      
  a5                  120.                       
  d5                    0.                       
  r6                    1.4                      
  a6                  120.                       
  d6                    0.                       
  r7                    1.5                      
  a7                  120.                       
  d7                  180.                       
  r8                    1.4                      
  a8                  120.                       
  d8                    0.                       
  r9                    1.4                      
  a9                  120.                       
  d9                  180.                       
  r10                   1.5                      
  a10                 120.                       
  d10                 180.                       
  r11                   1.5                      
  a11                 120.                       
  d11                   0.                       
  r12                   1.5                      
  a12                 120.                       
  d12                 180.                       
  r13                   1.1                      
  a13                 110.                       
  d13                   0.                       
  r14                   1.1                      
  a14                 110.                       
  d14                 120.                       
  r15                   1.1                      
  a15                 110.                       
  d15                 240.                       
  r16                   1.1                      
  a16                 110.                       
  d16                 180.                       
  r17                   1.1                      
  a17                 110.                       
  d17                 300.                       
  r18                   1.1                      
  a18                 110.                       
  d18                  60.                       
 
 NAtoms=     18 NQM=       18 NQMF=       0 NMMI=      0 NMMIF=      0
                NMic=       0 NMicF=      0.
                    Isotopes and Nuclear Properties:
 (Nuclear quadrupole moments (NQMom) in fm**2, nuclear magnetic moments (NMagM)
  in nuclear magnetons)

  Atom         1           2           3           4           5           6           7           8           9          10
 IAtWgt=          12          12          12          12          12          12          14          16          16          14
 AtmWgt=  12.0000000  12.0000000  12.0000000  12.0000000  12.0000000  12.0000000  14.0030740  15.9949146  15.9949146  14.0030740
 NucSpn=           0           0           0           0           0           0           2           0           0           2
 AtZEff=   0.0000000   0.0000000   0.0000000   0.0000000   0.0000000   0.0000000   0.0000000   0.0000000   0.0000000   0.0000000
 NQMom=    0.0000000   0.0000000   0.0000000   0.0000000   0.0000000   0.0000000   2.0440000   0.0000000   0.0000000   2.0440000
 NMagM=    0.0000000   0.0000000   0.0000000   0.0000000   0.0000000   0.0000000   0.4037610   0.0000000   0.0000000   0.4037610
 AtZNuc=   6.0000000   6.0000000   6.0000000   6.0000000   6.0000000   6.0000000   7.0000000   8.0000000   8.0000000   7.0000000

  Atom        11          12          13          14          15          16          17          18
 IAtWgt=          12          12           1           1           1           1           1           1
 AtmWgt=  12.0000000  12.0000000   1.0078250   1.0078250   1.0078250   1.0078250   1.0078250   1.0078250
 NucSpn=           0           0           1           1           1           1           1           1
 AtZEff=   0.0000000   0.0000000   0.0000000   0.0000000   0.0000000   0.0000000   0.0000000   0.0000000
 NQMom=    0.0000000   0.0000000   0.0000000   0.0000000   0.0000000   0.0000000   0.0000000   0.0000000
 NMagM=    0.0000000   0.0000000   2.7928460   2.7928460   2.7928460   2.7928460   2.7928460   2.7928460
 AtZNuc=   6.0000000   6.0000000   1.0000000   1.0000000   1.0000000   1.0000000   1.0000000   1.0000000
 Leave Link  101 at Wed Feb  3 17:17:47 2021, MaxMem=   402653184 cpu:         1.5
 (Enter /aplic/Gaussian/g09d01_prebuilt_iqtc01/g09/l103.exe)

 GradGradGradGradGradGradGradGradGradGradGradGradGradGradGradGradGradGrad
 Berny optimization.
 Initialization pass.
                           ----------------------------
                           !    Initial Parameters    !
                           ! (Angstroms and Degrees)  !
 --------------------------                            --------------------------
 ! Name  Definition              Value          Derivative Info.                !
 --------------------------------------------------------------------------------
 ! R1    R(1,2)                  1.4            estimate D2E/DX2                !
 ! R2    R(1,6)                  1.4            estimate D2E/DX2                !
 ! R3    R(1,7)                  1.5            estimate D2E/DX2                !
 ! R4    R(2,3)                  1.4            estimate D2E/DX2                !
 ! R5    R(3,4)                  1.4            estimate D2E/DX2                !
 ! R6    R(4,5)                  1.4            estimate D2E/DX2                !
 ! R7    R(4,10)                 1.5            estimate D2E/DX2                !
 ! R8    R(5,6)                  1.4            estimate D2E/DX2                !
 ! R9    R(7,8)                  1.4            estimate D2E/DX2                !
 ! R10   R(7,9)                  1.4            estimate D2E/DX2                !
 ! R11   R(10,11)                1.5            estimate D2E/DX2                !
 ! R12   R(10,12)                1.5            estimate D2E/DX2                !
 ! R13   R(11,13)                1.1            estimate D2E/DX2                !
 ! R14   R(11,14)                1.1            estimate D2E/DX2                !
 ! R15   R(11,15)                1.1            estimate D2E/DX2                !
 ! R16   R(12,16)                1.1            estimate D2E/DX2                !
 ! R17   R(12,17)                1.1            estimate D2E/DX2                !
 ! R18   R(12,18)                1.1            estimate D2E/DX2                !
 ! A1    A(2,1,6)              120.0            estimate D2E/DX2                !
 ! A2    A(2,1,7)              120.0            estimate D2E/DX2                !
 ! A3    A(6,1,7)              120.0            estimate D2E/DX2                !
 ! A4    A(1,2,3)              120.0            estimate D2E/DX2                !
 ! A5    A(2,3,4)              120.0            estimate D2E/DX2                !
 ! A6    A(3,4,5)              120.0            estimate D2E/DX2                !
 ! A7    A(3,4,10)             120.0            estimate D2E/DX2                !
 ! A8    A(5,4,10)             120.0            estimate D2E/DX2                !
 ! A9    A(4,5,6)              120.0            estimate D2E/DX2                !
 ! A10   A(1,6,5)              120.0            estimate D2E/DX2                !
 ! A11   A(1,7,8)              120.0            estimate D2E/DX2                !
 ! A12   A(1,7,9)              120.0            estimate D2E/DX2                !
 ! A13   A(8,7,9)              120.0            estimate D2E/DX2                !
 ! A14   A(4,10,11)            120.0            estimate D2E/DX2                !
 ! A15   A(4,10,12)            120.0            estimate D2E/DX2                !
 ! A16   A(11,10,12)           120.0            estimate D2E/DX2                !
 ! A17   A(10,11,13)           110.0            estimate D2E/DX2                !
 ! A18   A(10,11,14)           110.0            estimate D2E/DX2                !
 ! A19   A(10,11,15)           110.0            estimate D2E/DX2                !
 ! A20   A(13,11,14)           108.9373         estimate D2E/DX2                !
 ! A21   A(13,11,15)           108.9373         estimate D2E/DX2                !
 ! A22   A(14,11,15)           108.9373         estimate D2E/DX2                !
 ! A23   A(10,12,16)           110.0            estimate D2E/DX2                !
 ! A24   A(10,12,17)           110.0            estimate D2E/DX2                !
 ! A25   A(10,12,18)           110.0            estimate D2E/DX2                !
 ! A26   A(16,12,17)           108.9373         estimate D2E/DX2                !
 ! A27   A(16,12,18)           108.9373         estimate D2E/DX2                !
 ! A28   A(17,12,18)           108.9373         estimate D2E/DX2                !
 ! D1    D(6,1,2,3)              0.0            estimate D2E/DX2                !
 ! D2    D(7,1,2,3)            180.0            estimate D2E/DX2                !
 ! D3    D(2,1,6,5)              0.0            estimate D2E/DX2                !
 ! D4    D(7,1,6,5)            180.0            estimate D2E/DX2                !
 ! D5    D(2,1,7,8)              0.0            estimate D2E/DX2                !
 ! D6    D(2,1,7,9)            180.0            estimate D2E/DX2                !
 ! D7    D(6,1,7,8)            180.0            estimate D2E/DX2                !
 ! D8    D(6,1,7,9)              0.0            estimate D2E/DX2                !
 ! D9    D(1,2,3,4)              0.0            estimate D2E/DX2                !
 ! D10   D(2,3,4,5)              0.0            estimate D2E/DX2                !
 ! D11   D(2,3,4,10)           180.0            estimate D2E/DX2                !
 ! D12   D(3,4,5,6)              0.0            estimate D2E/DX2                !
 ! D13   D(10,4,5,6)           180.0            estimate D2E/DX2                !
 ! D14   D(3,4,10,11)            0.0            estimate D2E/DX2                !
 ! D15   D(3,4,10,12)          180.0            estimate D2E/DX2                !
 ! D16   D(5,4,10,11)          180.0            estimate D2E/DX2                !
 ! D17   D(5,4,10,12)            0.0            estimate D2E/DX2                !
 ! D18   D(4,5,6,1)              0.0            estimate D2E/DX2                !
 ! D19   D(4,10,11,13)           0.0            estimate D2E/DX2                !
 ! D20   D(4,10,11,14)         120.0            estimate D2E/DX2                !
 ! D21   D(4,10,11,15)        -120.0            estimate D2E/DX2                !
 ! D22   D(12,10,11,13)        180.0            estimate D2E/DX2                !
 ! D23   D(12,10,11,14)        -60.0            estimate D2E/DX2                !
 ! D24   D(12,10,11,15)         60.0            estimate D2E/DX2                !
 ! D25   D(4,10,12,16)         180.0            estimate D2E/DX2                !
 ! D26   D(4,10,12,17)         -60.0            estimate D2E/DX2                !
 ! D27   D(4,10,12,18)          60.0            estimate D2E/DX2                !
 ! D28   D(11,10,12,16)          0.0            estimate D2E/DX2                !
 ! D29   D(11,10,12,17)        120.0            estimate D2E/DX2                !
 ! D30   D(11,10,12,18)       -120.0            estimate D2E/DX2                !
 --------------------------------------------------------------------------------
 Trust Radius=3.00D-01 FncErr=1.00D-07 GrdErr=1.00D-06
 Number of steps in this run=     86 maximum allowed number of steps=    108.
 GradGradGradGradGradGradGradGradGradGradGradGradGradGradGradGradGradGrad

 Leave Link  103 at Wed Feb  3 17:17:47 2021, MaxMem=   402653184 cpu:         0.1
 (Enter /aplic/Gaussian/g09d01_prebuilt_iqtc01/g09/l202.exe)
                          Input orientation:                          
 ---------------------------------------------------------------------
 Center     Atomic      Atomic             Coordinates (Angstroms)
 Number     Number       Type             X           Y           Z
 ---------------------------------------------------------------------
      1          6           0        0.000000    0.000000    0.000000
      2          6           0        0.000000    0.000000    1.400000
      3          6           0        1.212436    0.000000    2.100000
      4          6           0        2.424871    0.000000    1.400000
      5          6           0        2.424871    0.000000    0.000000
      6          6           0        1.212436    0.000000   -0.700000
      7          7           0       -1.299038    0.000000   -0.750000
      8          8           0       -2.511474    0.000000   -0.050000
      9          8           0       -1.299038    0.000000   -2.150000
     10          7           0        3.723909    0.000000    2.150000
     11          6           0        3.723909    0.000000    3.650000
     12          6           0        5.022947    0.000000    1.400000
     13          1           0        2.690247    0.000000    4.026222
     14          1           0        4.240740   -0.895177    4.026222
     15          1           0        4.240740    0.895177    4.026222
     16          1           0        5.865596    0.000000    2.107066
     17          1           0        5.090350   -0.895177    0.764300
     18          1           0        5.090350    0.895177    0.764300
 ---------------------------------------------------------------------
                    Distance matrix (angstroms):
                    1          2          3          4          5
     1  C    0.000000
     2  C    1.400000   0.000000
     3  C    2.424871   1.400000   0.000000
     4  C    2.800000   2.424871   1.400000   0.000000
     5  C    2.424871   2.800000   2.424871   1.400000   0.000000
     6  C    1.400000   2.424871   2.800000   2.424871   1.400000
     7  N    1.500000   2.511971   3.798684   4.300000   3.798684
     8  O    2.511971   2.900000   4.300000   5.144900   4.936598
     9  O    2.511971   3.780212   4.936598   5.144900   4.300000
    10  N    4.300000   3.798684   2.511971   1.500000   2.511971
    11  C    5.214403   4.350862   2.951271   2.598076   3.874274
    12  C    5.214403   5.022947   3.874274   2.598076   2.951271
    13  H    4.842303   3.759584   2.427810   2.639596   4.034958
    14  H    5.915715   5.067767   3.698960   3.315986   4.506572
    15  H    5.915715   5.067767   3.698960   3.315986   4.506572
    16  H    6.232572   5.908059   4.653166   3.512625   4.034640
    17  H    5.224668   5.207410   4.198054   2.882748   2.913807
    18  H    5.224668   5.207410   4.198054   2.882748   2.913807
                    6          7          8          9         10
     6  C    0.000000
     7  N    2.511971   0.000000
     8  O    3.780212   1.400000   0.000000
     9  O    2.900000   1.400000   2.424871   0.000000
    10  N    3.798684   5.800000   6.612110   6.612110   0.000000
    11  C    5.022947   6.677574   7.250517   7.672679   1.500000
    12  C    4.350862   6.677574   7.672679   7.250517   1.500000
    13  H    4.951879   6.223078   6.608592   7.352559   2.142117
    14  H    5.684114   7.369042   7.937841   8.344831   2.142117
    15  H    5.684114   7.369042   7.937841   8.344831   2.142117
    16  H    5.434292   7.713288   8.650332   8.333943   2.142117
    17  H    4.240724   6.627120   7.697542   7.079461   2.142117
    18  H    4.240724   6.627120   7.697542   7.079461   2.142117
                   11         12         13         14         15
    11  C    0.000000
    12  C    2.598076   0.000000
    13  H    1.100000   3.512625   0.000000
    14  H    1.100000   2.882748   1.790355   0.000000
    15  H    1.100000   2.882748   1.790355   1.790355   0.000000
    16  H    2.639596   1.100000   3.710256   2.669206   2.669206
    17  H    3.315986   1.100000   4.147526   3.370752   3.816719
    18  H    3.315986   1.100000   4.147526   3.816719   3.370752
                   16         17         18
    16  H    0.000000
    17  H    1.790355   0.000000
    18  H    1.790355   1.790355   0.000000
 Stoichiometry    C8H6N2O2
 Framework group  CS[SG(C8H2N2O2),X(H4)]
 Deg. of freedom    31
 Full point group                 CS      NOp   2
 Largest Abelian subgroup         CS      NOp   2
 Largest concise Abelian subgroup CS      NOp   2
                         Standard orientation:                         
 ---------------------------------------------------------------------
 Center     Atomic      Atomic             Coordinates (Angstroms)
 Number     Number       Type             X           Y           Z
 ---------------------------------------------------------------------
      1          6           0        0.000000    1.509865    0.000000
      2          6           0        1.212436    0.809865    0.000000
      3          6           0        1.212436   -0.590135    0.000000
      4          6           0        0.000000   -1.290135    0.000000
      5          6           0       -1.212436   -0.590135    0.000000
      6          6           0       -1.212436    0.809865    0.000000
      7          7           0        0.000000    3.009865    0.000000
      8          8           0        1.212436    3.709865    0.000000
      9          8           0       -1.212436    3.709865    0.000000
     10          7           0        0.000000   -2.790135    0.000000
     11          6           0        1.299038   -3.540135    0.000000
     12          6           0       -1.299038   -3.540135    0.000000
     13          1           0        2.141687   -2.833069    0.000000
     14          1           0        1.366441   -4.175835    0.895177
     15          1           0        1.366441   -4.175835   -0.895177
     16          1           0       -1.108025   -4.623423    0.000000
     17          1           0       -1.883272   -3.280657    0.895177
     18          1           0       -1.883272   -3.280657   -0.895177
 ---------------------------------------------------------------------
 Rotational constants (GHZ):      2.8378047      0.4452544      0.3867712
 Leave Link  202 at Wed Feb  3 17:17:47 2021, MaxMem=   402653184 cpu:         0.2
 (Enter /aplic/Gaussian/g09d01_prebuilt_iqtc01/g09/l301.exe)
 Standard basis: 6-311G (5D, 7F)
 Ernie: Thresh=  0.10000D-02 Tol=  0.10000D-05 Strict=F.
 There are   132 symmetry adapted cartesian basis functions of A'  symmetry.
 There are    42 symmetry adapted cartesian basis functions of A"  symmetry.
 There are   132 symmetry adapted basis functions of A'  symmetry.
 There are    42 symmetry adapted basis functions of A"  symmetry.
   174 basis functions,   342 primitive gaussians,   174 cartesian basis functions
    42 alpha electrons       42 beta electrons
       nuclear repulsion energy       593.7838393049 Hartrees.
 IExCor=  402 DFT=T Ex+Corr=B3LYP ExCW=0 ScaHFX=  0.200000
 ScaDFX=  0.800000  0.720000  1.000000  0.810000 ScalE2=  1.000000  1.000000
 IRadAn=      0 IRanWt=     -1 IRanGd=            0 ICorTp=0 IEmpDi=  4
 NAtoms=   18 NActive=   18 NUniq=   16 SFac= 1.27D+00 NAtFMM=   60 NAOKFM=F Big=F
 Integral buffers will be    131072 words long.
 Raffenetti 2 integral format.
 Two-electron integral symmetry is turned on.
 Leave Link  301 at Wed Feb  3 17:17:48 2021, MaxMem=   402653184 cpu:         0.5
 (Enter /aplic/Gaussian/g09d01_prebuilt_iqtc01/g09/l302.exe)
 NPDir=0 NMtPBC=     1 NCelOv=     1 NCel=       1 NClECP=     1 NCelD=      1
         NCelK=      1 NCelE2=     1 NClLst=     1 CellRange=     0.0.
 One-electron integrals computed using PRISM.
 One-electron integral symmetry used in STVInt
 NBasis=   174 RedAO= T EigKep=  9.47D-04  NBF=   132    42
 NBsUse=   174 1.00D-06 EigRej= -1.00D+00 NBFU=   132    42
 Precomputing XC quadrature grid using
 IXCGrd= 4 IRadAn=           0 IRanWt=          -1 IRanGd=           0 AccXCQ= 0.00D+00.
 Generated NRdTot=       0 NPtTot=           0 NUsed=           0 NTot=          32
 NSgBfM=   171   171   171   172   173 MxSgAt=    18 MxSgA2=    18.
 Leave Link  302 at Wed Feb  3 17:17:49 2021, MaxMem=   402653184 cpu:         1.8
 (Enter /aplic/Gaussian/g09d01_prebuilt_iqtc01/g09/l303.exe)
 DipDrv:  MaxL=1.
 Leave Link  303 at Wed Feb  3 17:17:49 2021, MaxMem=   402653184 cpu:         0.4
 (Enter /aplic/Gaussian/g09d01_prebuilt_iqtc01/g09/l401.exe)
 ExpMin= 1.03D-01 ExpMax= 8.59D+03 ExpMxC= 1.30D+03 IAcc=1 IRadAn=         1 AccDes= 0.00D+00
 Harris functional with IExCor=  402 and IRadAn=       1 diagonalized for initial guess.
 HarFok:  IExCor=  402 AccDes= 0.00D+00 IRadAn=         1 IDoV= 1 UseB2=F ITyADJ=14
 ICtDFT=  3500011 ScaDFX=  1.000000  1.000000  1.000000  1.000000
 FoFCou: FMM=F IPFlag=           0 FMFlag=      100000 FMFlg1=           0
         NFxFlg=           0 DoJE=T BraDBF=F KetDBF=T FulRan=T
         wScrn=  0.000000 ICntrl=     500 IOpCl=  0 I1Cent=   200000004 NGrid=           0
         NMat0=    1 NMatS0=      1 NMatT0=    0 NMatD0=    1 NMtDS0=    0 NMtDT0=    0
 Petite list used in FoFCou.
 Harris En= -567.963190614022    
 JPrj=0 DoOrth=F DoCkMO=F.
 Initial guess orbital symmetries:
       Occupied  (A') (A') (A') (A') (A') (A') (A') (A') (A') (A')
                 (A') (A') (A') (A') (A') (A') (A') (A') (A') (A')
                 (A') (A') (A') (A') (A') (A") (A') (A') (A") (A')
                 (A') (A') (A") (A") (A') (A") (A") (A') (A') (A")
                 (A') (A')
       Virtual   (A") (A') (A") (A") (A") (A') (A') (A') (A') (A')
                 (A") (A") (A') (A") (A') (A') (A') (A') (A') (A')
                 (A") (A') (A') (A") (A') (A') (A') (A") (A') (A')
                 (A') (A') (A') (A') (A") (A') (A") (A') (A") (A')
                 (A') (A') (A") (A") (A') (A') (A") (A') (A') (A')
                 (A') (A") (A') (A') (A") (A') (A') (A') (A") (A')
                 (A") (A') (A') (A') (A") (A') (A') (A') (A') (A')
                 (A') (A') (A') (A') (A') (A') (A') (A') (A") (A')
                 (A") (A') (A') (A') (A') (A") (A") (A") (A') (A')
                 (A") (A") (A') (A') (A') (A") (A") (A') (A") (A')
                 (A') (A') (A') (A') (A') (A') (A') (A') (A") (A")
                 (A') (A') (A') (A') (A") (A") (A') (A') (A') (A')
                 (A') (A') (A') (A') (A') (A') (A') (A') (A') (A')
                 (A') (A')
 The electronic state of the initial guess is 1-A'.
 Leave Link  401 at Wed Feb  3 17:17:50 2021, MaxMem=   402653184 cpu:         2.4
 (Enter /aplic/Gaussian/g09d01_prebuilt_iqtc01/g09/l502.exe)
 Closed shell SCF:
 Using DIIS extrapolation, IDIIS=  1040.
 Integral symmetry usage will be decided dynamically.
 Keep R1 ints in memory in symmetry-blocked form, NReq=178289186.
 IVT=      111986 IEndB=      111986 NGot=   402653184 MDV=   340272098
 LenX=   340272098 LenY=   340241381
 Requested convergence on RMS density matrix=1.00D-08 within 128 cycles.
 Requested convergence on MAX density matrix=1.00D-06.
 Requested convergence on             energy=1.00D-06.
 No special actions if energy rises.
 FoFCou: FMM=F IPFlag=           0 FMFlag=           0 FMFlg1=           0
         NFxFlg=           0 DoJE=F BraDBF=F KetDBF=F FulRan=T
         wScrn=  0.000000 ICntrl=     600 IOpCl=  0 I1Cent=           0 NGrid=           0
         NMat0=    1 NMatS0=  15225 NMatT0=    0 NMatD0=    1 NMtDS0=    0 NMtDT0=    0
 Petite list used in FoFCou.
 Integral accuracy reduced to 1.0D-05 until final iterations.

 Cycle   1  Pass 0  IDiag  1:
 E= -567.228836825229    
 DIIS: error= 7.84D-02 at cycle   1 NSaved=   1.
 NSaved= 1 IEnMin= 1 EnMin= -567.228836825229     IErMin= 1 ErrMin= 7.84D-02
 ErrMax= 7.84D-02  0.00D+00 EMaxC= 1.00D-01 BMatC= 6.16D-01 BMatP= 6.16D-01
 IDIUse=3 WtCom= 2.16D-01 WtEn= 7.84D-01
 Coeff-Com:  0.100D+01
 Coeff-En:   0.100D+01
 Coeff:      0.100D+01
 Gap=     0.028 Goal=   None    Shift=    0.000
 GapD=    0.028 DampG=0.250 DampE=0.500 DampFc=0.2500 IDamp=-1.
 Damping current iteration by 2.50D-01
 RMSDP=1.38D-02 MaxDP=3.63D-01              OVMax= 4.35D-01

 Cycle   2  Pass 0  IDiag  1:
 E= -567.480151643676     Delta-E=       -0.251314818448 Rises=F Damp=T
 DIIS: error= 1.84D-02 at cycle   2 NSaved=   2.
 NSaved= 2 IEnMin= 2 EnMin= -567.480151643676     IErMin= 2 ErrMin= 1.84D-02
 ErrMax= 1.84D-02  0.00D+00 EMaxC= 1.00D-01 BMatC= 6.87D-02 BMatP= 6.16D-01
 IDIUse=3 WtCom= 8.16D-01 WtEn= 1.84D-01
 Coeff-Com: -0.144D+00 0.114D+01
 Coeff-En:   0.904D-01 0.910D+00
 Coeff:     -0.101D+00 0.110D+01
 Gap=     0.059 Goal=   None    Shift=    0.000
 RMSDP=6.80D-03 MaxDP=1.80D-01 DE=-2.51D-01 OVMax= 5.36D-01

 Cycle   3  Pass 0  IDiag  1:
 E= -567.623438330342     Delta-E=       -0.143286686666 Rises=F Damp=F
 DIIS: error= 6.24D-02 at cycle   3 NSaved=   3.
 NSaved= 3 IEnMin= 3 EnMin= -567.623438330342     IErMin= 2 ErrMin= 1.84D-02
 ErrMax= 6.24D-02  0.00D+00 EMaxC= 1.00D-01 BMatC= 2.25D-01 BMatP= 6.87D-02
 IDIUse=2 WtCom= 0.00D+00 WtEn= 1.00D+00
 EnCoef did   100 forward-backward iterations
 Coeff-En:   0.289D+00 0.928D-02 0.702D+00
 Coeff:      0.289D+00 0.928D-02 0.702D+00
 Gap=    -0.001 Goal=   None    Shift=    0.000
 RMSDP=7.28D-03 MaxDP=1.14D-01 DE=-1.43D-01 OVMax= 5.85D-01

 Cycle   4  Pass 0  IDiag  1:
 E= -566.581685365417     Delta-E=        1.041752964925 Rises=F Damp=F
 DIIS: error= 1.64D-01 at cycle   4 NSaved=   4.
 NSaved= 4 IEnMin= 3 EnMin= -567.623438330342     IErMin= 2 ErrMin= 1.84D-02
 ErrMax= 1.64D-01  0.00D+00 EMaxC= 1.00D-01 BMatC= 9.79D-01 BMatP= 6.87D-02
 IDIUse=2 WtCom= 0.00D+00 WtEn= 1.00D+00
 EnCoef did     4 forward-backward iterations
 Coeff-En:   0.211D+00 0.000D+00 0.616D+00 0.174D+00
 Coeff:      0.211D+00 0.000D+00 0.616D+00 0.174D+00
 Gap=     0.016 Goal=   None    Shift=    0.000
 RMSDP=8.75D-03 MaxDP=2.25D-01 DE= 1.04D+00 OVMax= 3.12D-01

 Cycle   5  Pass 0  IDiag  1:
 E= -567.452888851457     Delta-E=       -0.871203486040 Rises=F Damp=F
 DIIS: error= 5.59D-02 at cycle   5 NSaved=   5.
 NSaved= 5 IEnMin= 3 EnMin= -567.623438330342     IErMin= 2 ErrMin= 1.84D-02
 ErrMax= 5.59D-02  0.00D+00 EMaxC= 1.00D-01 BMatC= 2.93D-01 BMatP= 6.87D-02
 IDIUse=2 WtCom= 0.00D+00 WtEn= 1.00D+00
 EnCoef did     2 forward-backward iterations
 Coeff-En:   0.000D+00 0.000D+00 0.574D+00 0.101D+00 0.325D+00
 Coeff:      0.000D+00 0.000D+00 0.574D+00 0.101D+00 0.325D+00
 Gap=     0.060 Goal=   None    Shift=    0.000
 RMSDP=8.71D-03 MaxDP=2.14D-01 DE=-8.71D-01 OVMax= 1.27D-01

 Cycle   6  Pass 0  IDiag  1:
 E= -567.552011570010     Delta-E=       -0.099122718553 Rises=F Damp=F
 DIIS: error= 7.52D-02 at cycle   6 NSaved=   6.
 NSaved= 6 IEnMin= 3 EnMin= -567.623438330342     IErMin= 2 ErrMin= 1.84D-02
 ErrMax= 7.52D-02  0.00D+00 EMaxC= 1.00D-01 BMatC= 3.01D-01 BMatP= 6.87D-02
 IDIUse=2 WtCom= 0.00D+00 WtEn= 1.00D+00
 EnCoef did     3 forward-backward iterations
 Coeff-En:   0.000D+00 0.000D+00 0.419D+00 0.000D+00 0.283D+00 0.297D+00
 Coeff:      0.000D+00 0.000D+00 0.419D+00 0.000D+00 0.283D+00 0.297D+00
 Gap=     0.023 Goal=   None    Shift=    0.000
 RMSDP=2.56D-03 MaxDP=3.93D-02 DE=-9.91D-02 OVMax= 2.08D-01

 Cycle   7  Pass 0  IDiag  1:
 E= -567.860917711374     Delta-E=       -0.308906141364 Rises=F Damp=F
 DIIS: error= 1.22D-02 at cycle   7 NSaved=   7.
 NSaved= 7 IEnMin= 7 EnMin= -567.860917711374     IErMin= 7 ErrMin= 1.22D-02
 ErrMax= 1.22D-02  0.00D+00 EMaxC= 1.00D-01 BMatC= 1.76D-02 BMatP= 6.87D-02
 IDIUse=3 WtCom= 8.78D-01 WtEn= 1.22D-01
 Coeff-Com:  0.431D-01-0.635D-01 0.826D-01-0.459D-01 0.155D+00 0.129D+00
 Coeff-Com:  0.700D+00
 Coeff-En:   0.000D+00 0.000D+00 0.000D+00 0.000D+00 0.864D-01 0.000D+00
 Coeff-En:   0.914D+00
 Coeff:      0.379D-01-0.558D-01 0.725D-01-0.403D-01 0.146D+00 0.114D+00
 Coeff:      0.726D+00
 Gap=     0.013 Goal=   None    Shift=    0.000
 RMSDP=1.05D-03 MaxDP=2.55D-02 DE=-3.09D-01 OVMax= 8.97D-02

 Cycle   8  Pass 0  IDiag  1:
 E= -567.872345231067     Delta-E=       -0.011427519693 Rises=F Damp=F
 DIIS: error= 1.16D-02 at cycle   8 NSaved=   8.
 NSaved= 8 IEnMin= 8 EnMin= -567.872345231067     IErMin= 8 ErrMin= 1.16D-02
 ErrMax= 1.16D-02  0.00D+00 EMaxC= 1.00D-01 BMatC= 7.94D-03 BMatP= 1.76D-02
 IDIUse=3 WtCom= 8.84D-01 WtEn= 1.16D-01
 EnCoef did     6 forward-backward iterations
 Coeff-Com:  0.582D-01-0.734D-01-0.897D-01 0.126D-01-0.112D-01-0.122D+00
 Coeff-Com:  0.524D+00 0.701D+00
 Coeff-En:   0.000D+00 0.000D+00 0.000D+00 0.000D+00 0.185D-01 0.000D+00
 Coeff-En:   0.268D+00 0.713D+00
 Coeff:      0.514D-01-0.648D-01-0.793D-01 0.111D-01-0.770D-02-0.107D+00
 Coeff:      0.494D+00 0.703D+00
 Gap=     0.009 Goal=   None    Shift=    0.000
 RMSDP=7.82D-04 MaxDP=1.23D-02 DE=-1.14D-02 OVMax= 5.65D-02

 Cycle   9  Pass 0  IDiag  1:
 E= -567.876853371519     Delta-E=       -0.004508140451 Rises=F Damp=F
 DIIS: error= 5.38D-03 at cycle   9 NSaved=   9.
 NSaved= 9 IEnMin= 9 EnMin= -567.876853371519     IErMin= 9 ErrMin= 5.38D-03
 ErrMax= 5.38D-03  0.00D+00 EMaxC= 1.00D-01 BMatC= 2.87D-03 BMatP= 7.94D-03
 IDIUse=3 WtCom= 9.46D-01 WtEn= 5.38D-02
 Coeff-Com:  0.188D-01-0.164D-01-0.579D-01 0.637D-02-0.702D-02-0.690D-01
 Coeff-Com:  0.286D+00 0.501D+00 0.338D+00
 Coeff-En:   0.000D+00 0.000D+00 0.000D+00 0.000D+00 0.000D+00 0.000D+00
 Coeff-En:   0.000D+00 0.307D+00 0.693D+00
 Coeff:      0.178D-01-0.156D-01-0.548D-01 0.602D-02-0.664D-02-0.653D-01
 Coeff:      0.271D+00 0.490D+00 0.357D+00
 Gap=     0.015 Goal=   None    Shift=    0.000
 RMSDP=4.34D-04 MaxDP=6.60D-03 DE=-4.51D-03 OVMax= 4.56D-02

 Cycle  10  Pass 0  IDiag  1:
 E= -567.878622845263     Delta-E=       -0.001769473745 Rises=F Damp=F
 DIIS: error= 4.58D-03 at cycle  10 NSaved=  10.
 NSaved=10 IEnMin=10 EnMin= -567.878622845263     IErMin=10 ErrMin= 4.58D-03
 ErrMax= 4.58D-03  0.00D+00 EMaxC= 1.00D-01 BMatC= 1.22D-03 BMatP= 2.87D-03
 IDIUse=3 WtCom= 9.54D-01 WtEn= 4.58D-02
 Coeff-Com: -0.666D-04 0.659D-02-0.269D-01 0.125D-02-0.427D-03-0.259D-01
 Coeff-Com:  0.128D+00 0.281D+00 0.337D+00 0.300D+00
 Coeff-En:   0.000D+00 0.000D+00 0.000D+00 0.000D+00 0.000D+00 0.000D+00
 Coeff-En:   0.000D+00 0.000D+00 0.342D+00 0.658D+00
 Coeff:     -0.636D-04 0.629D-02-0.257D-01 0.119D-02-0.408D-03-0.247D-01
 Coeff:      0.122D+00 0.268D+00 0.337D+00 0.316D+00
 Gap=     0.016 Goal=   None    Shift=    0.000
 RMSDP=2.36D-04 MaxDP=3.22D-03 DE=-1.77D-03 OVMax= 2.44D-02

 Cycle  11  Pass 0  IDiag  1:
 E= -567.879834746118     Delta-E=       -0.001211900855 Rises=F Damp=F
 DIIS: error= 1.87D-03 at cycle  11 NSaved=  11.
 NSaved=11 IEnMin=11 EnMin= -567.879834746118     IErMin=11 ErrMin= 1.87D-03
 ErrMax= 1.87D-03  0.00D+00 EMaxC= 1.00D-01 BMatC= 1.27D-04 BMatP= 1.22D-03
 IDIUse=3 WtCom= 9.81D-01 WtEn= 1.87D-02
 Coeff-Com: -0.132D-02 0.449D-02-0.120D-01 0.105D-02 0.142D-04-0.107D-01
 Coeff-Com:  0.592D-01 0.143D+00 0.220D+00 0.259D+00 0.337D+00
 Coeff-En:   0.000D+00 0.000D+00 0.000D+00 0.000D+00 0.000D+00 0.000D+00
 Coeff-En:   0.000D+00 0.000D+00 0.000D+00 0.119D+00 0.881D+00
 Coeff:     -0.130D-02 0.441D-02-0.118D-01 0.104D-02 0.140D-04-0.105D-01
 Coeff:      0.581D-01 0.141D+00 0.216D+00 0.256D+00 0.347D+00
 Gap=     0.016 Goal=   None    Shift=    0.000
 RMSDP=7.55D-05 MaxDP=1.53D-03 DE=-1.21D-03 OVMax= 7.52D-03

 Cycle  12  Pass 0  IDiag  1:
 E= -567.879903053448     Delta-E=       -0.000068307329 Rises=F Damp=F
 DIIS: error= 1.83D-03 at cycle  12 NSaved=  12.
 NSaved=12 IEnMin=12 EnMin= -567.879903053448     IErMin=12 ErrMin= 1.83D-03
 ErrMax= 1.83D-03  0.00D+00 EMaxC= 1.00D-01 BMatC= 6.53D-05 BMatP= 1.27D-04
 IDIUse=3 WtCom= 9.82D-01 WtEn= 1.83D-02
 Coeff-Com: -0.261D-02 0.398D-02-0.397D-02 0.503D-04 0.156D-02-0.141D-02
 Coeff-Com:  0.180D-01 0.568D-01 0.116D+00 0.171D+00 0.352D+00 0.289D+00
 Coeff-En:   0.000D+00 0.000D+00 0.000D+00 0.000D+00 0.000D+00 0.000D+00
 Coeff-En:   0.000D+00 0.000D+00 0.000D+00 0.000D+00 0.347D+00 0.653D+00
 Coeff:     -0.257D-02 0.391D-02-0.390D-02 0.494D-04 0.153D-02-0.139D-02
 Coeff:      0.176D-01 0.558D-01 0.113D+00 0.168D+00 0.352D+00 0.295D+00
 Gap=     0.016 Goal=   None    Shift=    0.000
 RMSDP=3.76D-05 MaxDP=8.84D-04 DE=-6.83D-05 OVMax= 4.22D-03

 Cycle  13  Pass 0  IDiag  1:
 E= -567.879957717244     Delta-E=       -0.000054663797 Rises=F Damp=F
 DIIS: error= 1.78D-04 at cycle  13 NSaved=  13.
 NSaved=13 IEnMin=13 EnMin= -567.879957717244     IErMin=13 ErrMin= 1.78D-04
 ErrMax= 1.78D-04  0.00D+00 EMaxC= 1.00D-01 BMatC= 2.16D-06 BMatP= 6.53D-05
 IDIUse=3 WtCom= 9.98D-01 WtEn= 1.78D-03
 Coeff-Com: -0.439D-03 0.430D-04-0.119D-02 0.273D-03 0.313D-03-0.266D-03
 Coeff-Com: -0.123D-02 0.630D-02 0.193D-01 0.413D-01 0.126D+00 0.174D+00
 Coeff-Com:  0.635D+00
 Coeff-En:   0.000D+00 0.000D+00 0.000D+00 0.000D+00 0.000D+00 0.000D+00
 Coeff-En:   0.000D+00 0.000D+00 0.000D+00 0.000D+00 0.000D+00 0.169D-01
 Coeff-En:   0.983D+00
 Coeff:     -0.438D-03 0.429D-04-0.119D-02 0.273D-03 0.312D-03-0.265D-03
 Coeff:     -0.122D-02 0.629D-02 0.193D-01 0.413D-01 0.126D+00 0.174D+00
 Coeff:      0.636D+00
 Gap=     0.016 Goal=   None    Shift=    0.000
 RMSDP=1.09D-05 MaxDP=2.44D-04 DE=-5.47D-05 OVMax= 9.51D-04

 Cycle  14  Pass 0  IDiag  1:
 E= -567.879959913367     Delta-E=       -0.000002196123 Rises=F Damp=F
 DIIS: error= 2.50D-05 at cycle  14 NSaved=  14.
 NSaved=14 IEnMin=14 EnMin= -567.879959913367     IErMin=14 ErrMin= 2.50D-05
 ErrMax= 2.50D-05  0.00D+00 EMaxC= 1.00D-01 BMatC= 1.24D-07 BMatP= 2.16D-06
 IDIUse=1 WtCom= 1.00D+00 WtEn= 0.00D+00
 Coeff-Com: -0.258D-04-0.124D-03-0.220D-03 0.369D-04 0.327D-04 0.322D-04
 Coeff-Com: -0.196D-02-0.270D-02-0.549D-02-0.538D-03 0.143D-01 0.461D-01
 Coeff-Com:  0.297D+00 0.654D+00
 Coeff:     -0.258D-04-0.124D-03-0.220D-03 0.369D-04 0.327D-04 0.322D-04
 Coeff:     -0.196D-02-0.270D-02-0.549D-02-0.538D-03 0.143D-01 0.461D-01
 Coeff:      0.297D+00 0.654D+00
 Gap=     0.016 Goal=   None    Shift=    0.000
 RMSDP=2.77D-06 MaxDP=7.40D-05 DE=-2.20D-06 OVMax= 1.59D-04

 Initial convergence to 1.0D-05 achieved.  Increase integral accuracy.
 Cycle  15  Pass 1  IDiag  1:
 E= -567.879928152609     Delta-E=        0.000031760758 Rises=F Damp=F
 DIIS: error= 2.71D-05 at cycle   1 NSaved=   1.
 NSaved= 1 IEnMin= 1 EnMin= -567.879928152609     IErMin= 1 ErrMin= 2.71D-05
 ErrMax= 2.71D-05  0.00D+00 EMaxC= 1.00D-01 BMatC= 9.72D-08 BMatP= 9.72D-08
 IDIUse=1 WtCom= 1.00D+00 WtEn= 0.00D+00
 Coeff-Com:  0.100D+01
 Coeff:      0.100D+01
 Gap=     0.016 Goal=   None    Shift=    0.000
 RMSDP=2.77D-06 MaxDP=7.40D-05 DE= 3.18D-05 OVMax= 2.89D-04

 Cycle  16  Pass 1  IDiag  1:
 E= -567.879928000443     Delta-E=        0.000000152166 Rises=F Damp=F
 DIIS: error= 6.61D-05 at cycle   2 NSaved=   2.
 NSaved= 2 IEnMin= 1 EnMin= -567.879928152609     IErMin= 1 ErrMin= 2.71D-05
 ErrMax= 6.61D-05  0.00D+00 EMaxC= 1.00D-01 BMatC= 2.86D-07 BMatP= 9.72D-08
 IDIUse=1 WtCom= 1.00D+00 WtEn= 0.00D+00
 Coeff-Com:  0.678D+00 0.322D+00
 Coeff:      0.678D+00 0.322D+00
 Gap=     0.016 Goal=   None    Shift=    0.000
 RMSDP=4.72D-06 MaxDP=7.60D-05 DE= 1.52D-07 OVMax= 4.12D-04

 Cycle  17  Pass 1  IDiag  1:
 E= -567.879928055998     Delta-E=       -0.000000055556 Rises=F Damp=F
 DIIS: error= 6.72D-05 at cycle   3 NSaved=   3.
 NSaved= 3 IEnMin= 1 EnMin= -567.879928152609     IErMin= 1 ErrMin= 2.71D-05
 ErrMax= 6.72D-05  0.00D+00 EMaxC= 1.00D-01 BMatC= 2.31D-07 BMatP= 9.72D-08
 IDIUse=1 WtCom= 1.00D+00 WtEn= 0.00D+00
 Coeff-Com:  0.202D+00 0.402D+00 0.396D+00
 Coeff:      0.202D+00 0.402D+00 0.396D+00
 Gap=     0.016 Goal=   None    Shift=    0.000
 RMSDP=2.66D-06 MaxDP=4.07D-05 DE=-5.56D-08 OVMax= 2.04D-04

 Cycle  18  Pass 1  IDiag  1:
 E= -567.879928272850     Delta-E=       -0.000000216852 Rises=F Damp=F
 DIIS: error= 1.71D-05 at cycle   4 NSaved=   4.
 NSaved= 4 IEnMin= 4 EnMin= -567.879928272850     IErMin= 4 ErrMin= 1.71D-05
 ErrMax= 1.71D-05  0.00D+00 EMaxC= 1.00D-01 BMatC= 2.90D-08 BMatP= 9.72D-08
 IDIUse=1 WtCom= 1.00D+00 WtEn= 0.00D+00
 Coeff-Com: -0.653D-02 0.257D+00 0.328D+00 0.422D+00
 Coeff:     -0.653D-02 0.257D+00 0.328D+00 0.422D+00
 Gap=     0.016 Goal=   None    Shift=    0.000
 RMSDP=9.53D-07 MaxDP=2.13D-05 DE=-2.17D-07 OVMax= 4.66D-05

 Cycle  19  Pass 1  IDiag  1:
 E= -567.879928297309     Delta-E=       -0.000000024459 Rises=F Damp=F
 DIIS: error= 6.17D-06 at cycle   5 NSaved=   5.
 NSaved= 5 IEnMin= 5 EnMin= -567.879928297309     IErMin= 5 ErrMin= 6.17D-06
 ErrMax= 6.17D-06  0.00D+00 EMaxC= 1.00D-01 BMatC= 3.87D-09 BMatP= 2.90D-08
 IDIUse=1 WtCom= 1.00D+00 WtEn= 0.00D+00
 Coeff-Com: -0.168D-01 0.172D+00 0.225D+00 0.325D+00 0.295D+00
 Coeff:     -0.168D-01 0.172D+00 0.225D+00 0.325D+00 0.295D+00
 Gap=     0.016 Goal=   None    Shift=    0.000
 RMSDP=3.42D-07 MaxDP=5.84D-06 DE=-2.45D-08 OVMax= 3.26D-05

 Cycle  20  Pass 1  IDiag  1:
 E= -567.879928300381     Delta-E=       -0.000000003072 Rises=F Damp=F
 DIIS: error= 2.43D-06 at cycle   6 NSaved=   6.
 NSaved= 6 IEnMin= 6 EnMin= -567.879928300381     IErMin= 6 ErrMin= 2.43D-06
 ErrMax= 2.43D-06  0.00D+00 EMaxC= 1.00D-01 BMatC= 3.78D-10 BMatP= 3.87D-09
 IDIUse=1 WtCom= 1.00D+00 WtEn= 0.00D+00
 Coeff-Com: -0.123D-01 0.106D+00 0.137D+00 0.208D+00 0.232D+00 0.329D+00
 Coeff:     -0.123D-01 0.106D+00 0.137D+00 0.208D+00 0.232D+00 0.329D+00
 Gap=     0.016 Goal=   None    Shift=    0.000
 RMSDP=1.26D-07 MaxDP=1.98D-06 DE=-3.07D-09 OVMax= 1.64D-05

 Cycle  21  Pass 1  IDiag  1:
 E= -567.879928300688     Delta-E=       -0.000000000307 Rises=F Damp=F
 DIIS: error= 1.15D-06 at cycle   7 NSaved=   7.
 NSaved= 7 IEnMin= 7 EnMin= -567.879928300688     IErMin= 7 ErrMin= 1.15D-06
 ErrMax= 1.15D-06  0.00D+00 EMaxC= 1.00D-01 BMatC= 9.85D-11 BMatP= 3.78D-10
 IDIUse=1 WtCom= 1.00D+00 WtEn= 0.00D+00
 Coeff-Com: -0.411D-02 0.278D-01 0.290D-01 0.586D-01 0.954D-01 0.295D+00
 Coeff-Com:  0.499D+00
 Coeff:     -0.411D-02 0.278D-01 0.290D-01 0.586D-01 0.954D-01 0.295D+00
 Coeff:      0.499D+00
 Gap=     0.016 Goal=   None    Shift=    0.000
 RMSDP=1.09D-07 MaxDP=1.26D-06 DE=-3.07D-10 OVMax= 1.40D-05

 Cycle  22  Pass 1  IDiag  1:
 E= -567.879928300767     Delta-E=       -0.000000000079 Rises=F Damp=F
 DIIS: error= 1.05D-06 at cycle   8 NSaved=   8.
 NSaved= 8 IEnMin= 8 EnMin= -567.879928300767     IErMin= 8 ErrMin= 1.05D-06
 ErrMax= 1.05D-06  0.00D+00 EMaxC= 1.00D-01 BMatC= 4.81D-11 BMatP= 9.85D-11
 IDIUse=1 WtCom= 1.00D+00 WtEn= 0.00D+00
 Coeff-Com: -0.205D-02 0.116D-01 0.739D-02 0.256D-01 0.565D-01 0.202D+00
 Coeff-Com:  0.445D+00 0.254D+00
 Coeff:     -0.205D-02 0.116D-01 0.739D-02 0.256D-01 0.565D-01 0.202D+00
 Coeff:      0.445D+00 0.254D+00
 Gap=     0.016 Goal=   None    Shift=    0.000
 RMSDP=3.08D-08 MaxDP=5.80D-07 DE=-7.87D-11 OVMax= 2.95D-06

 Cycle  23  Pass 1  IDiag  1:
 E= -567.879928300815     Delta-E=       -0.000000000048 Rises=F Damp=F
 DIIS: error= 4.56D-07 at cycle   9 NSaved=   9.
 NSaved= 9 IEnMin= 9 EnMin= -567.879928300815     IErMin= 9 ErrMin= 4.56D-07
 ErrMax= 4.56D-07  0.00D+00 EMaxC= 1.00D-01 BMatC= 1.37D-11 BMatP= 4.81D-11
 IDIUse=1 WtCom= 1.00D+00 WtEn= 0.00D+00
 Coeff-Com: -0.169D-03-0.485D-03-0.771D-02-0.113D-02 0.167D-01 0.545D-01
 Coeff-Com:  0.268D+00 0.213D+00 0.458D+00
 Coeff:     -0.169D-03-0.485D-03-0.771D-02-0.113D-02 0.167D-01 0.545D-01
 Coeff:      0.268D+00 0.213D+00 0.458D+00
 Gap=     0.016 Goal=   None    Shift=    0.000
 RMSDP=4.01D-08 MaxDP=5.63D-07 DE=-4.82D-11 OVMax= 4.57D-06

 Cycle  24  Pass 1  IDiag  1:
 E= -567.879928300813     Delta-E=        0.000000000002 Rises=F Damp=F
 DIIS: error= 4.29D-07 at cycle  10 NSaved=  10.
 NSaved=10 IEnMin= 9 EnMin= -567.879928300815     IErMin=10 ErrMin= 4.29D-07
 ErrMax= 4.29D-07  0.00D+00 EMaxC= 1.00D-01 BMatC= 7.12D-12 BMatP= 1.37D-11
 IDIUse=1 WtCom= 1.00D+00 WtEn= 0.00D+00
 Coeff-Com:  0.693D-03-0.448D-02-0.103D-01-0.110D-01-0.527D-02-0.534D-01
 Coeff-Com:  0.593D-01-0.163D-01 0.479D+00 0.562D+00
 Coeff:      0.693D-03-0.448D-02-0.103D-01-0.110D-01-0.527D-02-0.534D-01
 Coeff:      0.593D-01-0.163D-01 0.479D+00 0.562D+00
 Gap=     0.016 Goal=   None    Shift=    0.000
 RMSDP=3.10D-08 MaxDP=4.29D-07 DE= 2.05D-12 OVMax= 3.52D-06

 Cycle  25  Pass 1  IDiag  1:
 E= -567.879928300836     Delta-E=       -0.000000000023 Rises=F Damp=F
 DIIS: error= 1.25D-07 at cycle  11 NSaved=  11.
 NSaved=11 IEnMin=11 EnMin= -567.879928300836     IErMin=11 ErrMin= 1.25D-07
 ErrMax= 1.25D-07  0.00D+00 EMaxC= 1.00D-01 BMatC= 1.25D-12 BMatP= 7.12D-12
 IDIUse=1 WtCom= 1.00D+00 WtEn= 0.00D+00
 Coeff-Com:  0.483D-03-0.261D-02-0.536D-02-0.709D-02-0.656D-02-0.597D-01
 Coeff-Com: -0.204D-01-0.106D+00 0.256D+00 0.341D+00 0.610D+00
 Coeff:      0.483D-03-0.261D-02-0.536D-02-0.709D-02-0.656D-02-0.597D-01
 Coeff:     -0.204D-01-0.106D+00 0.256D+00 0.341D+00 0.610D+00
 Gap=     0.016 Goal=   None    Shift=    0.000
 RMSDP=1.81D-08 MaxDP=2.37D-07 DE=-2.27D-11 OVMax= 2.14D-06

 Cycle  26  Pass 1  IDiag  1:
 E= -567.879928300826     Delta-E=        0.000000000010 Rises=F Damp=F
 DIIS: error= 5.85D-08 at cycle  12 NSaved=  12.
 NSaved=12 IEnMin=11 EnMin= -567.879928300836     IErMin=12 ErrMin= 5.85D-08
 ErrMax= 5.85D-08  0.00D+00 EMaxC= 1.00D-01 BMatC= 2.10D-13 BMatP= 1.25D-12
 IDIUse=1 WtCom= 1.00D+00 WtEn= 0.00D+00
 Coeff-Com:  0.140D-03-0.592D-03-0.118D-02-0.192D-02-0.246D-02-0.263D-01
 Coeff-Com: -0.178D-01-0.774D-01 0.658D-01 0.596D-01 0.371D+00 0.631D+00
 Coeff:      0.140D-03-0.592D-03-0.118D-02-0.192D-02-0.246D-02-0.263D-01
 Coeff:     -0.178D-01-0.774D-01 0.658D-01 0.596D-01 0.371D+00 0.631D+00
 Gap=     0.016 Goal=   None    Shift=    0.000
 RMSDP=8.30D-09 MaxDP=1.24D-07 DE= 9.78D-12 OVMax= 9.45D-07

 SCF Done:  E(RB3LYP) =  -567.879928301     A.U. after   26 cycles
            NFock= 26  Conv=0.83D-08     -V/T= 2.0060
 KE= 5.645041749027D+02 PE=-2.511367676460D+03 EE= 7.851997339517D+02
 Leave Link  502 at Wed Feb  3 17:18:21 2021, MaxMem=   402653184 cpu:       101.8
 (Enter /aplic/Gaussian/g09d01_prebuilt_iqtc01/g09/l601.exe)
 Copying SCF densities to generalized density rwf, IOpCl= 0 IROHF=0.

 **********************************************************************

            Population analysis using the SCF density.

 **********************************************************************

 Orbital symmetries:
       Occupied  (A') (A') (A') (A') (A') (A') (A') (A') (A') (A')
                 (A') (A') (A') (A') (A') (A') (A') (A') (A') (A')
                 (A') (A') (A') (A') (A') (A') (A") (A") (A') (A')
                 (A") (A') (A") (A') (A") (A') (A") (A') (A') (A")
                 (A') (A")
       Virtual   (A') (A') (A") (A") (A") (A') (A') (A') (A') (A')
                 (A") (A") (A') (A") (A') (A') (A') (A') (A') (A')
                 (A") (A') (A') (A") (A') (A') (A") (A') (A') (A')
                 (A') (A') (A") (A') (A") (A') (A') (A') (A') (A")
                 (A") (A') (A') (A') (A") (A') (A") (A') (A') (A')
                 (A") (A') (A') (A") (A') (A') (A') (A") (A') (A')
                 (A') (A') (A") (A') (A') (A') (A") (A') (A') (A')
                 (A') (A') (A') (A') (A') (A') (A') (A') (A") (A')
                 (A") (A') (A') (A') (A') (A") (A") (A") (A') (A')
                 (A") (A") (A') (A') (A') (A") (A') (A") (A") (A')
                 (A') (A') (A') (A') (A') (A') (A') (A') (A") (A')
                 (A") (A') (A') (A') (A") (A") (A') (A') (A') (A')
                 (A') (A') (A') (A') (A') (A') (A') (A') (A') (A')
                 (A') (A')
 The electronic state is 1-A'.
 Alpha  occ. eigenvalues --  -19.16750 -19.16745 -14.53726 -14.37761 -10.32278
 Alpha  occ. eigenvalues --  -10.31564 -10.28295 -10.28260 -10.26845 -10.26814
 Alpha  occ. eigenvalues --  -10.23879 -10.23857  -1.11881  -0.97609  -0.96369
 Alpha  occ. eigenvalues --   -0.91886  -0.83447  -0.79005  -0.75440  -0.74259
 Alpha  occ. eigenvalues --   -0.67306  -0.63595  -0.60029  -0.54308  -0.52907
 Alpha  occ. eigenvalues --   -0.52581  -0.49268  -0.48041  -0.47452  -0.46503
 Alpha  occ. eigenvalues --   -0.44169  -0.43436  -0.42322  -0.42313  -0.34037
 Alpha  occ. eigenvalues --   -0.33813  -0.31107  -0.30686  -0.30540  -0.29381
 Alpha  occ. eigenvalues --   -0.28001  -0.24217
 Alpha virt. eigenvalues --   -0.22577  -0.14204  -0.13676  -0.05396  -0.03197
 Alpha virt. eigenvalues --    0.02029   0.04293   0.05816   0.06695   0.08473
 Alpha virt. eigenvalues --    0.08506   0.09526   0.09943   0.11259   0.13228
 Alpha virt. eigenvalues --    0.16859   0.17556   0.19098   0.21324   0.25344
 Alpha virt. eigenvalues --    0.27098   0.28149   0.30530   0.31034   0.32165
 Alpha virt. eigenvalues --    0.33900   0.35102   0.35701   0.37716   0.38213
 Alpha virt. eigenvalues --    0.38885   0.40547   0.42751   0.43350   0.43641
 Alpha virt. eigenvalues --    0.44220   0.46833   0.48634   0.50317   0.50330
 Alpha virt. eigenvalues --    0.50768   0.51701   0.52656   0.54635   0.54793
 Alpha virt. eigenvalues --    0.56750   0.57232   0.58264   0.59415   0.60569
 Alpha virt. eigenvalues --    0.61551   0.62637   0.65932   0.66134   0.67821
 Alpha virt. eigenvalues --    0.73562   0.74712   0.76283   0.76401   0.80010
 Alpha virt. eigenvalues --    0.81636   0.82394   0.82718   0.84613   0.87824
 Alpha virt. eigenvalues --    0.88693   0.89170   0.94796   0.97330   1.00107
 Alpha virt. eigenvalues --    1.05277   1.05916   1.17406   1.22336   1.34273
 Alpha virt. eigenvalues --    1.38756   1.40592   1.47081   2.17445   2.18148
 Alpha virt. eigenvalues --    2.21073   2.22882   2.24634   2.25663   2.42641
 Alpha virt. eigenvalues --    2.44342   2.48854   2.49050   2.58474   2.61574
 Alpha virt. eigenvalues --    2.64386   2.66300   2.67001   2.77655   2.79696
 Alpha virt. eigenvalues --    2.82163   2.84039   2.85952   2.86634   2.88983
 Alpha virt. eigenvalues --    2.95816   2.98256   3.00518   3.02302   3.03107
 Alpha virt. eigenvalues --    3.05236   3.10042   3.14978   3.55917   3.74079
 Alpha virt. eigenvalues --    3.75931   3.78550   4.04650   4.05259   4.75353
 Alpha virt. eigenvalues --    4.77693   4.79600   4.86321   4.88802   5.01126
 Alpha virt. eigenvalues --   22.94639  23.23690  23.24147  23.31520  23.38170
 Alpha virt. eigenvalues --   23.47719  23.59019  23.69824  35.15174  35.36614
 Alpha virt. eigenvalues --   49.71337  49.75112
          Condensed to atoms (all electrons):
               1          2          3          4          5          6
     1  C    5.463607   0.466916  -0.102845   0.041394  -0.100248   0.470721
     2  C    0.466916   5.081731   0.627485  -0.072976  -0.077737  -0.121118
     3  C   -0.102845   0.627485   5.158379   0.537030  -0.120282  -0.074351
     4  C    0.041394  -0.072976   0.537030   4.823077   0.531906  -0.081387
     5  C   -0.100248  -0.077737  -0.120282   0.531906   5.163211   0.620698
     6  C    0.470721  -0.121118  -0.074351  -0.081387   0.620698   5.077891
     7  N   -0.144628  -0.046128   0.009916   0.001438   0.008970  -0.049351
     8  O   -0.105403   0.041399   0.001476   0.000018   0.000007   0.003899
     9  O   -0.105451   0.003875   0.000006   0.000017   0.001507   0.041289
    10  N    0.002133   0.005837  -0.072649   0.111636  -0.070501   0.007441
    11  C    0.000050   0.000484  -0.000651  -0.056435   0.001199  -0.000329
    12  C    0.000001  -0.000206   0.002210  -0.045433   0.005184  -0.000819
    13  H    0.000017  -0.000059   0.012340  -0.001594   0.001890   0.000121
    14  H   -0.000004  -0.000031  -0.000103   0.002639  -0.000079   0.000021
    15  H   -0.000004  -0.000031  -0.000103   0.002639  -0.000079   0.000021
    16  H   -0.000003   0.000015  -0.000186   0.005148   0.000286  -0.000004
    17  H   -0.000022   0.000032   0.000577  -0.001839   0.001457  -0.000161
    18  H   -0.000022   0.000032   0.000577  -0.001839   0.001457  -0.000161
               7          8          9         10         11         12
     1  C   -0.144628  -0.105403  -0.105451   0.002133   0.000050   0.000001
     2  C   -0.046128   0.041399   0.003875   0.005837   0.000484  -0.000206
     3  C    0.009916   0.001476   0.000006  -0.072649  -0.000651   0.002210
     4  C    0.001438   0.000018   0.000017   0.111636  -0.056435  -0.045433
     5  C    0.008970   0.000007   0.001507  -0.070501   0.001199   0.005184
     6  C   -0.049351   0.003899   0.041289   0.007441  -0.000329  -0.000819
     7  N    6.847547   0.174227   0.174440   0.000007   0.000000   0.000000
     8  O    0.174227   8.225529  -0.076648   0.000000   0.000000   0.000000
     9  O    0.174440  -0.076648   8.225454   0.000000   0.000000   0.000000
    10  N    0.000007   0.000000   0.000000   7.440761   0.220032   0.189994
    11  C    0.000000   0.000000   0.000000   0.220032   5.090338  -0.038796
    12  C    0.000000   0.000000   0.000000   0.189994  -0.038796   5.098575
    13  H   -0.000002   0.000000   0.000000  -0.035797   0.372418   0.004472
    14  H    0.000000   0.000000   0.000000  -0.047196   0.378349  -0.002289
    15  H    0.000000   0.000000   0.000000  -0.047196   0.378349  -0.002289
    16  H    0.000000   0.000000   0.000000  -0.028850  -0.002871   0.377692
    17  H    0.000000   0.000000   0.000000  -0.046861   0.002278   0.380644
    18  H    0.000000   0.000000   0.000000  -0.046861   0.002278   0.380644
              13         14         15         16         17         18
     1  C    0.000017  -0.000004  -0.000004  -0.000003  -0.000022  -0.000022
     2  C   -0.000059  -0.000031  -0.000031   0.000015   0.000032   0.000032
     3  C    0.012340  -0.000103  -0.000103  -0.000186   0.000577   0.000577
     4  C   -0.001594   0.002639   0.002639   0.005148  -0.001839  -0.001839
     5  C    0.001890  -0.000079  -0.000079   0.000286   0.001457   0.001457
     6  C    0.000121   0.000021   0.000021  -0.000004  -0.000161  -0.000161
     7  N   -0.000002   0.000000   0.000000   0.000000   0.000000   0.000000
     8  O    0.000000   0.000000   0.000000   0.000000   0.000000   0.000000
     9  O    0.000000   0.000000   0.000000   0.000000   0.000000   0.000000
    10  N   -0.035797  -0.047196  -0.047196  -0.028850  -0.046861  -0.046861
    11  C    0.372418   0.378349   0.378349  -0.002871   0.002278   0.002278
    12  C    0.004472  -0.002289  -0.002289   0.377692   0.380644   0.380644
    13  H    0.488739  -0.025495  -0.025495   0.000223  -0.000322  -0.000322
    14  H   -0.025495   0.537498  -0.043722   0.000278   0.001685  -0.000754
    15  H   -0.025495  -0.043722   0.537498   0.000278  -0.000754   0.001685
    16  H    0.000223   0.000278   0.000278   0.508935  -0.027350  -0.027350
    17  H   -0.000322   0.001685  -0.000754  -0.027350   0.523754  -0.041051
    18  H   -0.000322  -0.000754   0.001685  -0.027350  -0.041051   0.523754
 Mulliken charges:
               1
     1  C    0.113790
     2  C    0.090482
     3  C    0.021176
     4  C    0.204561
     5  C    0.031154
     6  C    0.105579
     7  N    0.023563
     8  O   -0.264504
     9  O   -0.264489
    10  N   -0.581931
    11  C   -0.346691
    12  C   -0.349584
    13  H    0.208865
    14  H    0.199202
    15  H    0.199202
    16  H    0.193762
    17  H    0.207931
    18  H    0.207931
 Sum of Mulliken charges =   0.00000
 Mulliken charges with hydrogens summed into heavy atoms:
               1
     1  C    0.113790
     2  C    0.090482
     3  C    0.021176
     4  C    0.204561
     5  C    0.031154
     6  C    0.105579
     7  N    0.023563
     8  O   -0.264504
     9  O   -0.264489
    10  N   -0.581931
    11  C    0.260579
    12  C    0.260040
 Electronic spatial extent (au):  <R**2>=           2694.7131
 Charge=              0.0000 electrons
 Dipole moment (field-independent basis, Debye):
    X=              0.0295    Y=             -9.2550    Z=              0.0000  Tot=              9.2550
 Quadrupole moment (field-independent basis, Debye-Ang):
   XX=            -71.3716   YY=            -77.4769   ZZ=            -70.5242
   XY=              0.0011   XZ=              0.0000   YZ=              0.0000
 Traceless Quadrupole moment (field-independent basis, Debye-Ang):
   XX=              1.7526   YY=             -4.3527   ZZ=              2.6000
   XY=              0.0011   XZ=              0.0000   YZ=              0.0000
 Octapole moment (field-independent basis, Debye-Ang**2):
  XXX=              0.9792  YYY=           -151.2501  ZZZ=              0.0000  XYY=             -0.3508
  XXY=            -19.9962  XXZ=              0.0000  XZZ=             -0.6436  YZZ=              8.7242
  YYZ=              0.0000  XYZ=              0.0000
 Hexadecapole moment (field-independent basis, Debye-Ang**3):
 XXXX=           -548.9943 YYYY=          -3008.2353 ZZZZ=            -85.7518 XXXY=             -1.5759
 XXXZ=              0.0000 YYYX=              2.5740 YYYZ=              0.0000 ZZZX=              0.0000
 ZZZY=              0.0000 XXYY=           -579.8063 XXZZ=           -105.4109 YYZZ=           -483.9433
 XXYZ=              0.0000 YYXZ=              0.0000 ZZXY=              0.6778
 N-N= 5.937838393049D+02 E-N=-2.511367677723D+03  KE= 5.645041749027D+02
 Symmetry A'   KE= 5.413919767009D+02
 Symmetry A"   KE= 2.311219820178D+01
 No NMR shielding tensors so no spin-rotation constants.
 Leave Link  601 at Wed Feb  3 17:18:22 2021, MaxMem=   402653184 cpu:         1.2
 (Enter /aplic/Gaussian/g09d01_prebuilt_iqtc01/g09/l701.exe)
 Compute integral first derivatives.
 ... and contract with generalized density number  0.
 Leave Link  701 at Wed Feb  3 17:18:22 2021, MaxMem=   402653184 cpu:         1.0
 (Enter /aplic/Gaussian/g09d01_prebuilt_iqtc01/g09/l702.exe)
 L702 exits ... SP integral derivatives will be done elsewhere.
 Leave Link  702 at Wed Feb  3 17:18:23 2021, MaxMem=   402653184 cpu:         0.2
 (Enter /aplic/Gaussian/g09d01_prebuilt_iqtc01/g09/l703.exe)
 Compute integral first derivatives, UseDBF=F ICtDFT=           0.
 Integral derivatives from FoFJK, PRISM(SPDF).
 Calling FoFJK, ICntrl=      2127 FMM=F ISym2X=1 I1Cent= 0 IOpClX= 0 NMat=1 NMatS=1 NMatT=0.
 FoFJK:  IHMeth= 1 ICntrl=    2127 DoSepK=F KAlg= 0 I1Cent=   0 FoldK=F
 IRaf=         0 NMat=   1 IRICut=       1 DoRegI=T DoRafI=F ISym2E= 1.
 FoFCou: FMM=F IPFlag=           0 FMFlag=      100000 FMFlg1=         800
         NFxFlg=           0 DoJE=F BraDBF=F KetDBF=F FulRan=T
         wScrn=  0.000000 ICntrl=    2127 IOpCl=  0 I1Cent=           0 NGrid=           0
         NMat0=    1 NMatS0=      1 NMatT0=    0 NMatD0=    1 NMtDS0=    0 NMtDT0=    0
 Petite list used in FoFCou.
 Leave Link  703 at Wed Feb  3 17:18:28 2021, MaxMem=   402653184 cpu:        21.5
 (Enter /aplic/Gaussian/g09d01_prebuilt_iqtc01/g09/l716.exe)
 Dipole        = 1.16231616D-02-3.64118681D+00 0.00000000D+00
 ***** Axes restored to original set *****
 -------------------------------------------------------------------
 Center     Atomic                   Forces (Hartrees/Bohr)
 Number     Number              X              Y              Z
 -------------------------------------------------------------------
      1        6          -0.067907213    0.000000000   -0.039893578
      2        6           0.146243885    0.000000000    0.068386300
      3        6          -0.144578159    0.000000000   -0.097027244
      4        6           0.113551549    0.000000000    0.063786697
      5        6          -0.154569558    0.000000000   -0.075792420
      6        6           0.130928952    0.000000000    0.092385088
      7        7          -0.058919496    0.000000000   -0.034145495
      8        8           0.087280251    0.000000000   -0.037577727
      9        8           0.011047952    0.000000000    0.094372663
     10        7          -0.043800792    0.000000000   -0.018444332
     11        6           0.003150150    0.000000000   -0.016442636
     12        6          -0.015888728    0.000000000    0.004810016
     13        1           0.005933056    0.000000000   -0.004169180
     14        1          -0.003237050    0.003835863   -0.000814942
     15        1          -0.003237050   -0.003835863   -0.000814942
     16        1          -0.008207652    0.000000000   -0.003526762
     17        1           0.001104952    0.004148145    0.002454248
     18        1           0.001104952   -0.004148145    0.002454248
 -------------------------------------------------------------------
 Cartesian Forces:  Max     0.154569558 RMS     0.054535665
 Leave Link  716 at Wed Feb  3 17:18:29 2021, MaxMem=   402653184 cpu:         0.3
 (Enter /aplic/Gaussian/g09d01_prebuilt_iqtc01/g09/l103.exe)

 GradGradGradGradGradGradGradGradGradGradGradGradGradGradGradGradGradGrad
 Berny optimization.
 FormGI is forming the generalized inverse of G from B-inverse, IUseBI=4.
 Internal  Forces:  Max     0.143950100 RMS     0.031041518
 Search for a local minimum.
 Step number   1 out of a maximum of   86
 All quantities printed in internal units (Hartrees-Bohrs-Radians)
 RMS Force = .31042D-01 SwitMx=.10000D-02 MixMth= 1
 Mixed Optimization -- RFO/linear search
 Second derivative matrix not updated -- first step.
 ITU=  0
     Eigenvalues ---    0.00369   0.00369   0.00369   0.00369   0.00369
     Eigenvalues ---    0.00369   0.01229   0.01307   0.02089   0.02089
     Eigenvalues ---    0.02089   0.07210   0.07210   0.07210   0.07210
     Eigenvalues ---    0.16000   0.16000   0.16000   0.16000   0.16000
     Eigenvalues ---    0.16000   0.25000   0.25000   0.25000   0.25000
     Eigenvalues ---    0.25000   0.25000   0.25000   0.25000   0.25000
     Eigenvalues ---    0.32377   0.32377   0.32377   0.32377   0.33682
     Eigenvalues ---    0.33682   0.33682   0.33682   0.33682   0.33682
     Eigenvalues ---    0.42421   0.43043   0.45621   0.45621   0.45621
     Eigenvalues ---    0.45621   0.45621   0.45621
 RFO step:  Lambda=-1.33519903D-01 EMin= 3.68972013D-03
 Linear search not attempted -- first point.
 Maximum step size (   0.300) exceeded in Quadratic search.
    -- Step size scaled by   0.601
 Iteration  1 RMS(Cart)=  0.05106225 RMS(Int)=  0.00030125
 Iteration  2 RMS(Cart)=  0.00032844 RMS(Int)=  0.00003612
 Iteration  3 RMS(Cart)=  0.00000008 RMS(Int)=  0.00003612
 ITry= 1 IFail=0 DXMaxC= 2.03D-01 DCOld= 1.00D+10 DXMaxT= 3.00D-01 DXLimC= 3.00D+00 Rises=F
 ClnCor:  largest displacement from symmetrization is 2.00D-09 for atom    18.
 Variable       Old X    -DE/DX   Delta X   Delta X   Delta X     New X
                                 (Linear)    (Quad)   (Total)
    R1        2.64562  -0.00492   0.00000  -0.00534  -0.00540   2.64021
    R2        2.64562  -0.00576   0.00000  -0.00619  -0.00625   2.63936
    R3        2.83459  -0.04545   0.00000  -0.05976  -0.05976   2.77483
    R4        2.64562  -0.14395   0.00000  -0.14675  -0.14675   2.49886
    R5        2.64562   0.00605   0.00000   0.00649   0.00655   2.65217
    R6        2.64562   0.00557   0.00000   0.00601   0.00607   2.65169
    R7        2.83459  -0.07187   0.00000  -0.09449  -0.09449   2.74010
    R8        2.64562  -0.14317   0.00000  -0.14595  -0.14595   2.49966
    R9        2.64562  -0.09438   0.00000  -0.09621  -0.09621   2.54941
   R10        2.64562  -0.09437   0.00000  -0.09621  -0.09621   2.54941
   R11        2.83459  -0.02224   0.00000  -0.02924  -0.02924   2.80535
   R12        2.83459  -0.02205   0.00000  -0.02899  -0.02899   2.80560
   R13        2.07870  -0.00700   0.00000  -0.00895  -0.00895   2.06975
   R14        2.07870  -0.00492   0.00000  -0.00629  -0.00629   2.07241
   R15        2.07870  -0.00492   0.00000  -0.00629  -0.00629   2.07241
   R16        2.07870  -0.00855   0.00000  -0.01093  -0.01093   2.06776
   R17        2.07870  -0.00473   0.00000  -0.00604  -0.00604   2.07266
   R18        2.07870  -0.00473   0.00000  -0.00604  -0.00604   2.07266
    A1        2.09440  -0.02911   0.00000  -0.04666  -0.04678   2.04761
    A2        2.09440   0.01462   0.00000   0.02343   0.02349   2.11789
    A3        2.09440   0.01449   0.00000   0.02323   0.02329   2.11769
    A4        2.09440   0.01539   0.00000   0.02335   0.02326   2.11766
    A5        2.09440   0.01946   0.00000   0.03126   0.03134   2.12574
    A6        2.09440  -0.04053   0.00000  -0.06251  -0.06238   2.03201
    A7        2.09440   0.02172   0.00000   0.03354   0.03348   2.12787
    A8        2.09440   0.01880   0.00000   0.02897   0.02890   2.12330
    A9        2.09440   0.01948   0.00000   0.03131   0.03140   2.12580
   A10        2.09440   0.01531   0.00000   0.02324   0.02316   2.11755
   A11        2.09440  -0.00983   0.00000  -0.01541  -0.01541   2.07899
   A12        2.09440  -0.00970   0.00000  -0.01521  -0.01521   2.07919
   A13        2.09440   0.01953   0.00000   0.03061   0.03061   2.12501
   A14        2.09440   0.00270   0.00000   0.00423   0.00423   2.09863
   A15        2.09440  -0.00494   0.00000  -0.00775  -0.00775   2.08664
   A16        2.09440   0.00224   0.00000   0.00352   0.00352   2.09791
   A17        1.91986  -0.00378   0.00000  -0.00832  -0.00832   1.91154
   A18        1.91986   0.00187   0.00000   0.00412   0.00411   1.92397
   A19        1.91986   0.00187   0.00000   0.00412   0.00411   1.92397
   A20        1.90131   0.00015   0.00000  -0.00028  -0.00027   1.90104
   A21        1.90131   0.00015   0.00000  -0.00028  -0.00027   1.90104
   A22        1.90131  -0.00025   0.00000   0.00064   0.00062   1.90194
   A23        1.91986  -0.00490   0.00000  -0.01055  -0.01054   1.90932
   A24        1.91986   0.00260   0.00000   0.00558   0.00557   1.92543
   A25        1.91986   0.00260   0.00000   0.00558   0.00557   1.92543
   A26        1.90131   0.00044   0.00000   0.00040   0.00041   1.90173
   A27        1.90131   0.00044   0.00000   0.00040   0.00041   1.90173
   A28        1.90131  -0.00119   0.00000  -0.00143  -0.00146   1.89986
    D1        0.00000   0.00000   0.00000   0.00000   0.00000   0.00000
    D2        3.14159   0.00000   0.00000   0.00000   0.00000   3.14159
    D3        0.00000   0.00000   0.00000   0.00000   0.00000   0.00000
    D4        3.14159   0.00000   0.00000   0.00000   0.00000   3.14159
    D5        0.00000   0.00000   0.00000   0.00000   0.00000   0.00000
    D6        3.14159   0.00000   0.00000   0.00000   0.00000   3.14159
    D7        3.14159   0.00000   0.00000   0.00000   0.00000   3.14159
    D8        0.00000   0.00000   0.00000   0.00000   0.00000   0.00000
    D9        0.00000   0.00000   0.00000   0.00000   0.00000   0.00000
   D10        0.00000   0.00000   0.00000   0.00000   0.00000   0.00000
   D11        3.14159   0.00000   0.00000   0.00000   0.00000   3.14159
   D12        0.00000   0.00000   0.00000   0.00000   0.00000   0.00000
   D13        3.14159   0.00000   0.00000   0.00000   0.00000   3.14159
   D14        0.00000   0.00000   0.00000   0.00000   0.00000   0.00000
   D15        3.14159   0.00000   0.00000   0.00000   0.00000   3.14159
   D16        3.14159   0.00000   0.00000   0.00000   0.00000   3.14159
   D17        0.00000   0.00000   0.00000   0.00000   0.00000   0.00000
   D18        0.00000   0.00000   0.00000   0.00000   0.00000   0.00000
   D19        0.00000   0.00000   0.00000   0.00000   0.00000   0.00000
   D20        2.09440  -0.00102   0.00000  -0.00299  -0.00300   2.09139
   D21       -2.09440   0.00102   0.00000   0.00299   0.00300  -2.09139
   D22        3.14159   0.00000   0.00000   0.00000   0.00000   3.14159
   D23       -1.04720  -0.00102   0.00000  -0.00299  -0.00300  -1.05020
   D24        1.04720   0.00102   0.00000   0.00299   0.00300   1.05020
   D25        3.14159   0.00000   0.00000   0.00000   0.00000   3.14159
   D26       -1.04720  -0.00090   0.00000  -0.00263  -0.00265  -1.04985
   D27        1.04720   0.00090   0.00000   0.00263   0.00265   1.04985
   D28        0.00000   0.00000   0.00000   0.00000   0.00000   0.00000
   D29        2.09440  -0.00090   0.00000  -0.00263  -0.00265   2.09175
   D30       -2.09440   0.00090   0.00000   0.00263   0.00265  -2.09175
         Item               Value     Threshold  Converged?
 Maximum Force            0.143950     0.000450     NO 
 RMS     Force            0.031042     0.000300     NO 
 Maximum Displacement     0.203372     0.001800     NO 
 RMS     Displacement     0.051171     0.001200     NO 
 Predicted change in Energy=-6.215431D-02
 Lowest energy point so far.  Saving SCF results.
 GradGradGradGradGradGradGradGradGradGradGradGradGradGradGradGradGradGrad

 Leave Link  103 at Wed Feb  3 17:18:29 2021, MaxMem=   402653184 cpu:         0.5
 (Enter /aplic/Gaussian/g09d01_prebuilt_iqtc01/g09/l202.exe)
                          Input orientation:                          
 ---------------------------------------------------------------------
 Center     Atomic      Atomic             Coordinates (Angstroms)
 Number     Number       Type             X           Y           Z
 ---------------------------------------------------------------------
      1          6           0        0.025520    0.000000    0.013678
      2          6           0        0.055440    0.000000    1.410498
      3          6           0        1.199401    0.000000    2.073779
      4          6           0        2.437456    0.000000    1.412764
      5          6           0        2.396496    0.000000    0.010150
      6          6           0        1.252413    0.000000   -0.653763
      7          7           0       -1.244608    0.000000   -0.723146
      8          8           0       -2.403854    0.000000   -0.033084
      9          8           0       -1.221297    0.000000   -2.072033
     10          7           0        3.693401    0.000000    2.137397
     11          6           0        3.700118    0.000000    3.621908
     12          6           0        4.973143    0.000000    1.384752
     13          1           0        2.669492    0.000000    3.992602
     14          1           0        4.213642   -0.892667    3.998906
     15          1           0        4.213642    0.892667    3.998906
     16          1           0        5.809601    0.000000    2.090190
     17          1           0        5.041923   -0.892112    0.750415
     18          1           0        5.041923    0.892112    0.750415
 ---------------------------------------------------------------------
                    Distance matrix (angstroms):
                    1          2          3          4          5
     1  C    0.000000
     2  C    1.397140   0.000000
     3  C    2.371078   1.322342   0.000000
     4  C    2.788346   2.382017   1.403468   0.000000
     5  C    2.370979   2.727914   2.385708   1.403212   0.000000
     6  C    1.396691   2.386193   2.728058   2.382196   1.322765
     7  N    1.468378   2.498512   3.714293   4.256724   3.714210
     8  O    2.429823   2.851676   4.174005   5.052599   4.800544
     9  O    2.429969   3.709189   4.800786   5.052750   4.174197
    10  N    4.238341   3.709871   2.494812   1.449997   2.491414
    11  C    5.149951   4.263099   2.941137   2.544530   3.839821
    12  C    5.134084   4.917770   3.836130   2.535842   2.920384
    13  H    4.777281   3.674306   2.417239   2.590252   3.991798
    14  H    5.849723   4.978689   3.686274   3.261874   4.473147
    15  H    5.849723   4.978689   3.686274   3.261874   4.473147
    16  H    6.145526   5.794164   4.610229   3.439515   3.996980
    17  H    5.148101   5.108482   4.160785   2.831575   2.888276
    18  H    5.148101   5.108482   4.160785   2.831575   2.888276
                    6          7          8          9         10
     6  C    0.000000
     7  N    2.497984   0.000000
     8  O    3.708575   1.349087   0.000000
     9  O    2.851444   1.349089   2.357064   0.000000
    10  N    3.707964   5.706718   6.472056   6.470979   0.000000
    11  C    4.926726   6.582538   7.114594   7.526042   1.484527
    12  C    4.242567   6.565338   7.512013   7.093692   1.484660
    13  H    4.857656   6.128495   6.476495   7.205417   2.119003
    14  H    5.586865   7.272353   7.800324   8.197056   2.129019
    15  H    5.586865   7.272353   7.800324   8.197056   2.129019
    16  H    5.319515   7.594519   8.483462   8.170534   2.116726
    17  H    4.138595   6.518260   7.539849   6.927482   2.130280
    18  H    4.138595   6.518260   7.539849   6.927482   2.130280
                   11         12         13         14         15
    11  C    0.000000
    12  C    2.573997   0.000000
    13  H    1.095264   3.479611   0.000000
    14  H    1.096671   2.864873   1.783618   0.000000
    15  H    1.096671   2.864873   1.783618   1.785333   0.000000
    16  H    2.606928   1.094214   3.671437   2.643319   2.643319
    17  H    3.292685   1.096803   4.115345   3.352423   3.797917
    18  H    3.292685   1.096803   4.115345   3.797917   3.352423
                   16         17         18
    16  H    0.000000
    17  H    1.783308   0.000000
    18  H    1.783308   1.784223   0.000000
 Stoichiometry    C8H6N2O2
 Framework group  CS[SG(C8H2N2O2),X(H4)]
 Deg. of freedom    31
 Full point group                 CS      NOp   2
 RotChk:  IX=3 Diff= 5.43D-03
 Largest Abelian subgroup         CS      NOp   2
 Largest concise Abelian subgroup CS      NOp   2
                         Standard orientation:                         
 ---------------------------------------------------------------------
 Center     Atomic      Atomic             Coordinates (Angstroms)
 Number     Number       Type             X           Y           Z
 ---------------------------------------------------------------------
      1          6           0        0.005023    1.501898    0.000000
      2          6           0        1.196956    0.772998    0.000000
      3          6           0        1.194321   -0.549341    0.000000
      4          6           0        0.000000   -1.286444    0.000000
      5          6           0       -1.191383   -0.545088    0.000000
      6          6           0       -1.189232    0.777675    0.000000
      7          7           0        0.007612    2.970274    0.000000
      8          8           0        1.187365    3.624658    0.000000
      9          8           0       -1.169695    3.629052    0.000000
     10          7           0       -0.005985   -2.736428    0.000000
     11          6           0        1.273401   -3.489415    0.000000
     12          6           0       -1.300465   -3.463434    0.000000
     13          1           0        2.112452   -2.785428    0.000000
     14          1           0        1.340699   -4.122902    0.892667
     15          1           0        1.340699   -4.122902   -0.892667
     16          1           0       -1.111900   -4.541278    0.000000
     17          1           0       -1.883214   -3.203593    0.892112
     18          1           0       -1.883214   -3.203593   -0.892112
 ---------------------------------------------------------------------
 Rotational constants (GHZ):      2.9344752      0.4629546      0.4019114
 Leave Link  202 at Wed Feb  3 17:18:29 2021, MaxMem=   402653184 cpu:         0.0
 (Enter /aplic/Gaussian/g09d01_prebuilt_iqtc01/g09/l301.exe)
 Standard basis: 6-311G (5D, 7F)
 Ernie: Thresh=  0.10000D-02 Tol=  0.10000D-05 Strict=F.
 There are   132 symmetry adapted cartesian basis functions of A'  symmetry.
 There are    42 symmetry adapted cartesian basis functions of A"  symmetry.
 There are   132 symmetry adapted basis functions of A'  symmetry.
 There are    42 symmetry adapted basis functions of A"  symmetry.
   174 basis functions,   342 primitive gaussians,   174 cartesian basis functions
    42 alpha electrons       42 beta electrons
       nuclear repulsion energy       605.2511686435 Hartrees.
 IExCor=  402 DFT=T Ex+Corr=B3LYP ExCW=0 ScaHFX=  0.200000
 ScaDFX=  0.800000  0.720000  1.000000  0.810000 ScalE2=  1.000000  1.000000
 IRadAn=      0 IRanWt=     -1 IRanGd=            0 ICorTp=0 IEmpDi=  4
 NAtoms=   18 NActive=   18 NUniq=   16 SFac= 1.27D+00 NAtFMM=   60 NAOKFM=F Big=F
 Integral buffers will be    131072 words long.
 Raffenetti 2 integral format.
 Two-electron integral symmetry is turned on.
 Leave Link  301 at Wed Feb  3 17:18:29 2021, MaxMem=   402653184 cpu:         0.4
 (Enter /aplic/Gaussian/g09d01_prebuilt_iqtc01/g09/l302.exe)
 NPDir=0 NMtPBC=     1 NCelOv=     1 NCel=       1 NClECP=     1 NCelD=      1
         NCelK=      1 NCelE2=     1 NClLst=     1 CellRange=     0.0.
 One-electron integrals computed using PRISM.
 One-electron integral symmetry used in STVInt
 NBasis=   174 RedAO= T EigKep=  8.50D-04  NBF=   132    42
 NBsUse=   174 1.00D-06 EigRej= -1.00D+00 NBFU=   132    42
 Precomputing XC quadrature grid using
 IXCGrd= 4 IRadAn=           0 IRanWt=          -1 IRanGd=           0 AccXCQ= 0.00D+00.
 Generated NRdTot=       0 NPtTot=           0 NUsed=           0 NTot=          32
 NSgBfM=   172   172   172   173   173 MxSgAt=    18 MxSgA2=    18.
 Leave Link  302 at Wed Feb  3 17:18:30 2021, MaxMem=   402653184 cpu:         1.8
 (Enter /aplic/Gaussian/g09d01_prebuilt_iqtc01/g09/l303.exe)
 DipDrv:  MaxL=1.
 Leave Link  303 at Wed Feb  3 17:18:30 2021, MaxMem=   402653184 cpu:         0.3
 (Enter /aplic/Gaussian/g09d01_prebuilt_iqtc01/g09/l401.exe)
 Initial guess from the checkpoint file:  "DPNA.chk"
 B after Tr=     0.000000    0.000000    0.000000
         Rot=    0.999999    0.000000    0.000000    0.001595 Ang=   0.18 deg.
 Guess basis will be translated and rotated to current coordinates.
 JPrj=2 DoOrth=T DoCkMO=T.
 Initial guess orbital symmetries:
       Occupied  (A') (A') (A') (A') (A') (A') (A') (A') (A') (A')
                 (A') (A') (A') (A') (A') (A') (A') (A') (A') (A')
                 (A') (A') (A') (A') (A') (A') (A") (A") (A') (A')
                 (A") (A') (A") (A') (A") (A') (A") (A') (A') (A")
                 (A') (A")
       Virtual   (A') (A') (A') (A') (A') (A') (A') (A') (A') (A')
                 (A') (A') (A') (A') (A') (A') (A') (A') (A') (A')
                 (A') (A') (A') (A') (A') (A') (A') (A') (A') (A')
                 (A') (A') (A') (A') (A') (A') (A') (A') (A') (A')
                 (A') (A') (A') (A') (A') (A') (A') (A') (A') (A')
                 (A') (A') (A') (A') (A') (A') (A') (A') (A') (A')
                 (A') (A') (A') (A') (A') (A') (A') (A') (A') (A')
                 (A') (A') (A') (A') (A') (A') (A') (A') (A') (A')
                 (A') (A') (A') (A') (A') (A') (A') (A') (A') (A')
                 (A') (A') (A') (A') (A') (A') (A') (A') (A") (A")
                 (A") (A") (A") (A") (A") (A") (A") (A") (A") (A")
                 (A") (A") (A") (A") (A") (A") (A") (A") (A") (A")
                 (A") (A") (A") (A") (A") (A") (A") (A") (A") (A")
                 (A") (A")
[...]
    D3        0.00000   0.00000   0.00000   0.00000   0.00000   0.00000
    D4        3.14159   0.00000   0.00000   0.00000   0.00000   3.14159
    D5        0.00000   0.00000   0.00000   0.00000   0.00000   0.00000
    D6        3.14159   0.00000   0.00000   0.00000   0.00000   3.14159
    D7        3.14159   0.00000   0.00000   0.00000   0.00000   3.14159
    D8        0.00000   0.00000   0.00000   0.00000   0.00000   0.00000
    D9        0.00000   0.00000   0.00000   0.00000   0.00000   0.00000
   D10        0.00000   0.00000   0.00000   0.00000   0.00000   0.00000
   D11        3.14159   0.00000   0.00000   0.00000   0.00000   3.14159
   D12        0.00000   0.00000   0.00000   0.00000   0.00000   0.00000
   D13        3.14159   0.00000   0.00000   0.00000   0.00000   3.14159
   D14        0.00000   0.00000   0.00000   0.00000   0.00000   0.00000
   D15        3.14159   0.00000   0.00000   0.00000   0.00000   3.14159
   D16        3.14159   0.00000   0.00000   0.00000   0.00000   3.14159
   D17        0.00000   0.00000   0.00000   0.00000   0.00000   0.00000
   D18        0.00000   0.00000   0.00000   0.00000   0.00000   0.00000
   D19        0.00000   0.00000   0.00000   0.00000   0.00000   0.00000
   D20        2.08696  -0.00001   0.00000  -0.00001  -0.00001   2.08695
   D21       -2.08696   0.00001   0.00000   0.00001   0.00001  -2.08695
   D22        3.14159   0.00000   0.00000   0.00000   0.00000   3.14159
   D23       -1.05463  -0.00001   0.00000  -0.00001  -0.00001  -1.05464
   D24        1.05463   0.00001   0.00000   0.00001   0.00001   1.05464
   D25        3.14159   0.00000   0.00000   0.00000   0.00000   3.14159
   D26       -1.05258   0.00000   0.00000   0.00004   0.00004  -1.05255
   D27        1.05258   0.00000   0.00000  -0.00004  -0.00004   1.05255
   D28        0.00000   0.00000   0.00000   0.00000   0.00000   0.00000
   D29        2.08901   0.00000   0.00000   0.00004   0.00004   2.08905
   D30       -2.08901   0.00000   0.00000  -0.00004  -0.00004  -2.08905
         Item               Value     Threshold  Converged?
 Maximum Force            0.000372     0.000450     YES
 RMS     Force            0.000113     0.000300     YES
 Maximum Displacement     0.003412     0.001800     NO 
 RMS     Displacement     0.000882     0.001200     YES
 Predicted change in Energy=-3.521207D-06
 GradGradGradGradGradGradGradGradGradGradGradGradGradGradGradGradGradGrad

 Leave Link  103 at Wed Feb  3 17:24:14 2021, MaxMem=   402653184 cpu:         0.2
 (Enter /aplic/Gaussian/g09d01_prebuilt_iqtc01/g09/l9999.exe)
 1\1\GINC-G4INODE5\Freq\RB3LYP\6-311G\C8H6N2O2\CMM7\03-Feb-2021\0\\#P G
 eom=AllCheck Guess=TCheck SCRF=Check GenChk RB3LYP/6-311G Freq\\DPNA\\
 0,1\C,-0.0464815322,0.,-0.0348294867\C,0.1143123027,0.,1.3710194225\C,
 1.183814194,0.,2.0090498168\C,2.5093841065,0.,1.4720579239\C,2.3341354
 448,0.,0.0525977758\C,1.2587483056,0.,-0.5768808328\N,-1.2703176079,0.
 ,-0.7518872304\O,-2.3509498919,0.,-0.0777498463\O,-1.2126105832,0.,-2.
 0239497878\N,3.6812082824,0.,2.145223773\C,3.7213021744,0.,3.610132876
 5\C,4.9432048062,0.,1.3936111157\H,2.705374618,0.,3.9984279182\H,4.235
 8782992,-0.8885504105,3.9809396366\H,4.2358782992,0.8885504105,3.98093
 96366\H,5.7729840077,0.,2.094948121\H,5.0189938366,-0.8862001104,0.760
 3412029\H,5.0189938366,0.8862001104,0.7603412029\\Version=AM64L-G09Rev
 D.01\State=1-A'\HF=-567.9939719\RMSD=2.928e-09\RMSF=1.818e-04\ZeroPoin
 t=0.1255272\Thermal=0.13644\Dipole=3.5716301,0.,2.0914376\DipoleDeriv=
 -0.7102025,0.,-0.5521222,0.,-0.0647784,0.,-0.5534974,0.,-0.0384189,0.0
 607989,0.,0.248017,0.,0.0764276,0.,0.8451683,0.,0.5382425,-0.923236,0.
 ,-0.4587692,0.,-0.2018595,0.,-0.3260903,0.,-0.5315652,2.3362213,0.,1.1
 396649,0.,0.3837289,0.,1.1683921,0.,1.0682334,-0.9635853,0.,-0.309683,
 0.,-0.205861,0.,-0.4713106,0.,-0.4953354,0.9138217,0.,0.3873742,0.,0.0
 740182,0.,-0.1964298,0.,-0.2970872,2.1813745,0.,0.562078,0.,0.2816406,
 0.,0.5858084,0.,1.5316134,-1.2182606,0.,-0.0297754,0.,-0.2580832,0.,0.
 1987264,0.,-0.5147758,-0.6068106,0.,-0.1389604,0.,-0.2574508,0.,-0.384
 9128,0.,-1.1188528,-1.7548197,0.,-0.7000605,0.,-0.3621093,0.,-0.824492
 1,0.,-0.942687,0.0153822,0.,0.0531358,0.,0.2915159,0.,0.3755077,0.,0.6
 816182,0.6978777,0.,-0.0153261,0.,0.2956715,0.,-0.3092664,0.,0.1202074
 ,-0.0527569,0.,0.0761284,0.,0.1112565,0.,0.0162947,0.,0.0730402,0.0330
 247,0.1006485,-0.0846871,0.1164406,-0.0700961,0.0931556,-0.1219656,0.0
 095654,-0.0573553,0.0330247,-0.1006485,-0.0846871,-0.1164406,-0.070096
 1,-0.0931556,-0.1219656,-0.0095654,-0.0573553,-0.0449876,0.,-0.0657666
 ,0.,0.1074373,0.,-0.1452745,0.,-0.0184736,0.0015667,-0.0445446,-0.0132
 804,0.0462357,-0.065681,-0.0778954,0.1326538,-0.0860378,0.0294756,0.00
 15667,0.0445446,-0.0132804,-0.0462357,-0.065681,0.0778954,0.1326538,0.
 0860378,0.0294756\Polar=183.4498428,0.,48.6665654,52.2527615,0.,124.47
 25674\PG=CS [SG(C8H2N2O2),X(H4)]\NImag=1\\0.58837326,0.,0.09125466,0.0
 4541050,0.,0.53514923,-0.05076511,0.,0.00027263,0.66988861,0.,-0.03612
 909,0.,0.,0.06570228,-0.03800313,0.,-0.26845838,0.34788266,0.,0.568197
 08,-0.01545369,0.,-0.05673661,-0.56519198,0.,-0.33296755,0.89075924,0.
 ,-0.00642759,0.,0.,-0.03929703,0.,0.,0.05343863,-0.00361160,0.,-0.0113
 7181,-0.34294178,0.,-0.20720097,0.25829385,0.,0.35330154,-0.00186826,0
 .,0.01488025,-0.04081968,0.,-0.03096872,-0.23693943,0.,0.07938897,0.71
 387344,0.,0.02264436,0.,0.,-0.00962536,0.,0.,-0.03517844,0.,0.,0.11835
 930,0.01530551,0.,-0.01808739,0.01327767,0.,0.02484534,0.03960450,0.,-
 0.09103586,0.12404454,0.,0.56661060,-0.03955831,0.,0.00917289,-0.02920
 788,0.,-0.01674127,0.02594748,0.,0.02579476,-0.07604467,0.,-0.01093522
 ,0.69599110,0.,-0.00658445,0.,0.,0.00406150,0.,0.,0.00668737,0.,0.,-0.
 03513164,0.,0.,0.05290475,-0.04496598,0.,0.01125930,-0.00632292,0.,-0.
 05498836,0.07163442,0.,-0.02890167,-0.05115190,0.,-0.25264790,0.365586
 33,0.,0.54607630,-0.23405938,0.,0.06437141,0.01849010,0.,0.07727747,-0
 .05787107,0.,0.00050354,0.00250023,0.,-0.05411583,-0.57385904,0.,-0.32
 449095,0.88356696,0.,-0.03641352,0.,0.,0.01531422,0.,0.,0.00446542,0.,
 0.,-0.00922826,0.,0.,-0.03967961,0.,0.,0.06610139,0.10327807,0.,-0.086
 99436,0.01740907,0.,-0.03440870,0.01000558,0.,-0.02517755,-0.00965567,
 0.,-0.01795573,-0.33492524,0.,-0.19425198,0.22414746,0.,0.35146719,-0.
 15754926,0.,-0.04415504,-0.01407794,0.,-0.01217805,0.01912445,0.,-0.00
 264194,-0.01283655,0.,-0.00589718,0.00693937,0.,0.00937498,-0.05089762
 ,0.,-0.00737611,0.64723653,0.,-0.05545918,0.,0.,-0.01495693,0.,0.,0.01
 480756,0.,0.,-0.00519103,0.,0.,0.01543378,0.,0.,-0.01502756,0.,0.,0.19
 265249,-0.04346102,0.,-0.10902741,-0.02760751,0.,-0.03953308,0.0022575
 6,0.,0.00301319,-0.00564613,0.,-0.00674022,0.00476213,0.,0.01563974,0.
 00715523,0.,-0.00349402,-0.05563734,0.,0.71189601,-0.07830611,0.,0.016
 28450,0.00469700,0.,0.00533900,-0.00460963,0.,0.00125873,0.00377151,0.
 ,0.00471855,-0.00522093,0.,-0.00495878,0.00452026,0.,-0.00370829,-0.33
 586930,0.,0.12789776,0.40930233,0.,0.01375161,0.,0.,0.00226995,0.,0.,-
 0.00161048,0.,0.,-0.00009090,0.,0.,-0.00186104,0.,0.,0.00599278,0.,0.,
 -0.06490162,0.,0.,0.02471752,0.00717471,0.,0.01743539,-0.00539270,0.,0
 .00297324,0.00318761,0.,-0.00473464,0.00063455,0.,-0.00073743,0.001168
 35,0.,-0.00025398,-0.00871955,0.,0.00484937,0.10940579,0.,-0.17652498,
 -0.17968896,0.,0.21094536,0.00454854,0.,-0.03908647,-0.00073477,0.,-0.
 00596837,-0.00296717,0.,-0.00001010,0.00257157,0.,0.00129662,-0.002637
 67,0.,0.00214885,0.00316771,0.,-0.00468005,-0.11331611,0.,-0.01564039,
 0.00563830,0.,0.07149104,0.10518274,0.,0.01368567,0.,0.,0.00597277,0.,
 0.,-0.00183301,0.,0.,-0.00007171,0.,0.,-0.00166580,0.,0.,0.00232181,0.
 ,0.,-0.06494143,0.,0.,0.02143303,0.,0.,0.02479471,-0.03041070,0.,-0.06
 501073,-0.00092753,0.,0.00980811,-0.00604705,0.,-0.00240861,0.00527375
 ,0.,0.00054347,0.00004215,0.,-0.00666780,0.00657742,0.,0.00453257,0.00
 276355,0.,-0.40001031,0.03571378,0.,-0.05449392,-0.00886249,0.,0.51586
 651,-0.01892123,0.,-0.01118809,0.00886115,0.,0.00594965,-0.05053092,0.
 ,-0.00983332,-0.31900351,0.,-0.11596613,-0.00346306,0.,-0.01675096,0.0
 0852752,0.,0.00688511,0.01300270,0.,0.00735167,-0.00456232,0.,0.000842
 15,-0.00152500,0.,-0.00488520,0.70182718,0.,-0.00070241,0.,0.,0.005317
 59,0.,0.,0.00394709,0.,0.,-0.04581023,0.,0.,0.00420570,0.,0.,0.0051251
 9,0.,0.,-0.00144060,0.,0.,0.00023622,0.,0.,0.00020791,0.,0.,0.12145432
 ,-0.01065305,0.,-0.00620391,0.00588373,0.,0.00152820,0.01105938,0.,0.0
 1152830,-0.11240892,0.,-0.18334245,-0.03916318,0.,-0.03655115,0.006076
 82,0.,0.00145510,0.00712798,0.,0.00487128,-0.00315091,0.,0.00066126,-0
 .00085413,0.,-0.00234468,0.06745136,0.,0.64363676,-0.00178820,0.,-0.00
 077685,0.00140125,0.,-0.00040168,-0.00248523,0.,-0.00251592,0.00414810
 ,0.,-0.03106297,-0.00429315,0.,-0.00351414,0.00079075,0.,-0.00032056,0
 .00095505,0.,0.00046001,-0.00048857,0.,0.00030845,-0.00004043,0.,-0.00
 027643,-0.10675804,0.,-0.00613921,0.61488092,0.,0.00016419,0.,0.,-0.00
 083011,0.,0.,-0.00095126,0.,0.,-0.00208161,0.,0.,0.00299609,0.,0.,0.00
 241397,0.,0.,-0.00054252,0.,0.,0.00012726,0.,0.,0.00000917,0.,0.,-0.06
 003460,0.,0.,0.55684301,0.00410894,0.,0.00381204,-0.00256051,0.,-0.001
 74955,0.00642545,0.,-0.00031559,-0.01608328,0.,-0.02950033,0.00300721,
 0.,0.00414174,-0.00149697,0.,0.00002845,-0.00393965,0.,-0.00170985,0.0
 0157791,0.,-0.00059752,0.00059251,0.,0.00118955,-0.00579764,0.,-0.2057
 6372,-0.00229826,0.,0.46320664,0.00640212,0.,0.00224982,-0.00174699,0.
 ,-0.00125802,0.00281010,0.,-0.00126640,-0.04679146,0.,0.01020807,0.002
 63628,0.,0.00669961,-0.00383941,0.,-0.00165207,-0.00388584,0.,-0.00284
 366,0.00151285,0.,-0.00027602,0.00020525,0.,0.00180848,-0.17124870,0.,
 0.04801545,-0.00032601,0.,0.00519241,0.50907071,0.,0.00064252,0.,0.,0.
 00248879,0.,0.,0.00249800,0.,0.,-0.00183396,0.,0.,0.00132622,0.,0.,-0.
 00102925,0.,0.,-0.00111660,0.,0.,-0.00004492,0.,0.,0.00008149,0.,0.,-0
 .06311567,0.,0.,-0.00071446,0.,0.,0.55249821,-0.00303998,0.,-0.0002334
 1,-0.00105368,0.,-0.00051701,-0.00536484,0.,-0.00139567,-0.01155476,0.
 ,0.01392080,-0.00453289,0.,-0.00187899,0.00209316,0.,0.00066957,0.0018
 0487,0.,0.00140228,-0.00069485,0.,-0.00009169,-0.00023807,0.,-0.000868
 01,0.04529010,0.,-0.13244278,0.03051084,0.,-0.01574953,0.07184395,0.,0
 .56827667,0.00039384,0.,0.00059703,-0.00132702,0.,-0.00036429,0.001706
 03,0.,-0.00029616,-0.00042079,0.,-0.00309087,0.00067444,0.,0.00011704,
 -0.00016910,0.,0.00015560,-0.00027510,0.,-0.00006886,0.00011600,0.,-0.
 00011262,0.00003066,0.,0.00005346,0.00145153,0.,-0.00124184,-0.2847217
 9,0.,0.08921241,0.00099755,0.,-0.00141100,0.30712897,0.,-0.00008799,0.
 ,0.,0.00014281,0.,0.,-0.00037811,0.,0.,0.00152906,0.,0.,0.00002856,0.,
 0.,-0.00013218,0.,0.,0.00005824,0.,0.,-0.00003077,0.,0.,-0.00001257,0.
 ,0.,-0.00157057,0.,0.,-0.04977355,0.,0.,0.00108196,0.,0.,0.04793984,-0
 .00073135,0.,-0.00088280,0.00088690,0.,-0.00077386,-0.00111546,0.,0.00
 224383,0.00376600,0.,-0.00009451,-0.00067342,0.,0.00000640,0.00053248,
 0.,0.00014343,0.00028406,0.,-0.00005811,-0.00007437,0.,0.00025491,0.00
 002560,0.,0.00007012,0.03516519,0.,-0.02104308,0.07643850,0.,-0.080553
 15,-0.00215450,0.,-0.00440741,-0.09338718,0.,0.09681199,0.00023505,0.0
 0036929,0.00032698,-0.00045441,0.00007850,0.00012445,0.00023474,0.0004
 0010,-0.00054385,0.00040641,-0.00037324,-0.00001976,0.00010229,0.00047
 949,-0.00020798,-0.00009341,0.00016554,-0.00012188,-0.00002681,-0.0004
 5305,0.00002851,-0.00000999,-0.00000414,-0.00009393,-0.00004573,-0.000
 00336,-0.00000917,0.00080502,-0.00104231,-0.00095079,-0.10873959,0.098
 38560,-0.03670966,0.00039828,-0.00080119,0.00004154,-0.01317573,0.0270
 0757,-0.01010864,0.11221815,0.00037359,0.00004327,0.00024947,-0.000177
 53,-0.00006437,-0.00027132,0.00038697,0.00006849,0.00026143,-0.0013484
 9,-0.00077306,-0.00148980,-0.00003666,-0.00036694,0.00011669,-0.000196
 10,0.00000151,-0.00006471,-0.00036918,-0.00000552,-0.00022355,0.000146
 61,0.00000119,-0.00001245,0.00005453,0.00000011,0.00015741,-0.00131392
 ,0.00908177,0.00103110,0.09956576,-0.22393355,0.06412570,0.00044959,0.
 00048777,0.00044197,-0.00174117,0.00080219,-0.00083095,-0.10950488,0.2
 3842050,-0.00146166,-0.00023638,-0.00085635,0.00060662,0.00006251,0.00
 024712,-0.00119764,-0.00016160,0.00075817,0.00613441,0.00377569,-0.000
 46666,-0.00154825,-0.00070359,-0.00195686,0.00084056,-0.00058629,0.000
 05780,0.00115223,0.00036931,0.00061467,-0.00048595,-0.00003438,0.00017
 487,-0.00012809,-0.00001413,-0.00041145,-0.02276425,0.02557397,-0.0291
 6918,-0.03358830,0.06127472,-0.06917436,-0.00204334,-0.00007632,0.0013
 4256,0.00484401,-0.01019862,0.00469045,0.04362643,-0.07144127,0.089237
 56,0.00023505,-0.00036929,0.00032698,-0.00045441,-0.00007850,0.0001244
 5,0.00023474,-0.00040010,-0.00054385,0.00040641,0.00037324,-0.00001976
 ,0.00010229,-0.00047949,-0.00020798,-0.00009341,-0.00016554,-0.0001218
 8,-0.00002681,0.00045305,0.00002851,-0.00000999,0.00000414,-0.00009393
 ,-0.00004573,0.00000336,-0.00000917,0.00080502,0.00104231,-0.00095079,
 -0.10873959,-0.09838560,-0.03670966,0.00039828,0.00080119,0.00004154,-
 0.01317573,-0.02700757,-0.01010864,0.00789322,0.01482017,0.00495980,0.
 11221815,-0.00037359,0.00004327,-0.00024947,0.00017753,-0.00006437,0.0
 0027132,-0.00038697,0.00006849,-0.00026143,0.00134849,-0.00077306,0.00
 148980,0.00003666,-0.00036694,-0.00011669,0.00019610,0.00000151,0.0000
 6471,0.00036918,-0.00000552,0.00022355,-0.00014661,0.00000119,0.000012
 45,-0.00005453,0.00000011,-0.00015741,0.00131392,0.00908177,-0.0010311
 0,-0.09956576,-0.22393355,-0.06412570,-0.00044959,0.00048777,-0.000441
 97,0.00174117,0.00080219,0.00083095,-0.01482017,-0.02312606,-0.0077389
 4,0.10950488,0.23842050,-0.00146166,0.00023638,-0.00085635,0.00060662,
 -0.00006251,0.00024712,-0.00119764,0.00016160,0.00075817,0.00613441,-0
 .00377569,-0.00046665,-0.00154825,0.00070359,-0.00195686,0.00084056,0.
 00058629,0.00005780,0.00115223,-0.00036931,0.00061467,-0.00048595,0.00
 003438,0.00017487,-0.00012809,0.00001413,-0.00041145,-0.02276425,-0.02
 557397,-0.02916918,-0.03358830,-0.06127472,-0.06917436,-0.00204334,0.0
 0007632,0.00134256,0.00484401,0.01019862,0.00469045,0.00495980,0.00773
 894,0.00480111,0.04362643,0.07144127,0.08923756,-0.00044659,0.,-0.0002
 2631,-0.00018042,0.,0.00013995,-0.00151975,0.,-0.00047529,-0.00144118,
 0.,0.00461020,-0.00002159,0.,-0.00014885,0.00014412,0.,0.00008663,0.00
 043250,0.,0.00025334,-0.00018274,0.,0.00002498,-0.00006263,0.,-0.00019
 893,-0.02988775,0.,-0.01926425,0.00120844,0.,-0.00263912,-0.19906460,0
 .,-0.12587167,0.00041790,0.,-0.00024171,-0.00009085,-0.00056177,0.0007
 0321,-0.00009085,0.00056177,0.00070321,0.22547859,0.,0.00002769,0.,0.,
 0.00001558,0.,0.,0.00042833,0.,0.,0.00000447,0.,0.,-0.00000997,0.,0.,-
 0.00010392,0.,0.,-0.00000276,0.,0.,0.00000152,0.,0.,0.00001104,0.,0.,-
 0.00236525,0.,0.,0.00175373,0.,0.,-0.04923697,0.,0.,-0.00011190,0.,-0.
 00015335,-0.00023826,0.00012213,0.00015335,-0.00023826,-0.00012213,0.,
 0.04778560,0.00042009,0.,-0.00003586,0.00017232,0.,-0.00005174,0.00123
 080,0.,0.00087237,0.00287158,0.,-0.00299881,-0.00121423,0.,0.00064383,
 0.00024013,0.,-0.00055516,0.00012819,0.,-0.00007365,-0.00011918,0.,0.0
 0004861,-0.00011634,0.,0.00006633,0.02206039,0.,0.01076122,0.00189531,
 0.,0.00060852,-0.14038750,0.,-0.16980112,-0.00003747,0.,0.00015287,0.0
 0014471,0.00011148,0.00024415,0.00014471,-0.00011148,0.00024415,0.1402
 5143,0.,0.18258941,-0.00073585,-0.00057781,-0.00086181,0.00081125,-0.0
 0059012,0.00100673,-0.00162395,-0.00098090,-0.00027982,0.00424392,0.00
 321197,0.00402103,0.00095652,-0.00117486,-0.00142040,-0.00041260,0.000
 20229,0.00029711,0.00053537,0.00070262,0.00035510,-0.00014934,-0.00000
 921,0.00007004,0.00001525,-0.00004521,-0.00030297,-0.01468980,0.023322
 19,0.02458117,-0.00250196,0.00152405,-0.00094105,-0.04876420,0.0064253
 0,0.00106787,0.00017416,0.00003065,0.00074827,0.00051839,-0.00032730,-
 0.00014416,-0.00017506,0.00022022,0.00049438,0.00265370,-0.02220275,-0
 .01384247,0.05768346,0.00139685,-0.00022650,0.00029226,-0.00017179,-0.
 00015912,-0.00013612,0.00063339,-0.00036672,0.00032750,-0.00109550,0.0
 0162603,-0.00119586,-0.00034737,-0.00098879,0.00142457,-0.00055669,-0.
 00006174,-0.00101570,-0.00044503,0.00031960,-0.00050337,0.00010820,0.0
 0000373,0.00000781,-0.00007986,0.00000335,0.00032184,0.00296661,0.0081
 9088,0.00200832,-0.00037830,-0.00075610,0.00069438,0.00807979,-0.22225
 044,-0.11845009,0.00005262,-0.00014359,0.00015362,0.00010662,-0.000253
 02,-0.00001890,-0.00016298,-0.00014599,-0.00003210,-0.00000291,0.00113
 968,0.00214759,-0.00991739,0.23733066,0.00105114,-0.00033287,0.0001814
 1,-0.00009579,-0.00004546,-0.00008229,0.00046383,-0.00016584,0.0000334
 0,-0.00282955,0.00133824,-0.00092314,0.00087407,-0.00071090,0.00114412
 ,-0.00091648,-0.00009259,-0.00021190,-0.00068429,0.00037280,-0.0004401
 0,0.00028851,0.00000136,-0.00004186,0.00007899,0.00000131,0.00027515,0
 .00947710,-0.01157312,-0.01420600,0.00243477,-0.00150759,0.00065051,0.
 00395352,-0.11622772,-0.12978442,0.00009336,0.00009631,-0.00062576,-0.
 00010236,0.00013268,-0.00024527,-0.00038440,0.00003281,0.00011165,0.00
 114659,-0.01878365,-0.01135756,-0.01369669,0.13071924,0.14404414,-0.00
 073585,0.00057781,-0.00086181,0.00081125,0.00059012,0.00100673,-0.0016
 2395,0.00098090,-0.00027982,0.00424392,-0.00321197,0.00402103,0.000956
 52,0.00117486,-0.00142040,-0.00041260,-0.00020229,0.00029711,0.0005353
 7,-0.00070262,0.00035510,-0.00014934,0.00000921,0.00007004,0.00001525,
 0.00004521,-0.00030297,-0.01468980,-0.02332219,0.02458117,-0.00250196,
 -0.00152405,-0.00094105,-0.04876420,-0.00642530,0.00106787,0.00017416,
 -0.00003065,0.00074827,-0.00017506,-0.00022022,0.00049438,0.00051839,0
 .00032730,-0.00014416,0.00265370,0.02220275,-0.01384247,0.00146073,-0.
 00018627,-0.00115233,0.05768346,-0.00139685,-0.00022650,-0.00029226,0.
 00017179,-0.00015912,0.00013612,-0.00063339,-0.00036672,-0.00032750,0.
 00109550,0.00162603,0.00119586,0.00034737,-0.00098879,-0.00142457,0.00
 055669,-0.00006174,0.00101570,0.00044503,0.00031960,0.00050338,-0.0001
 0820,0.00000373,-0.00000781,0.00007986,0.00000335,-0.00032184,-0.00296
 661,0.00819088,-0.00200832,0.00037830,-0.00075610,-0.00069438,-0.00807
 979,-0.22225044,0.11845009,-0.00005262,-0.00014359,-0.00015362,0.00016
 298,-0.00014599,0.00003210,-0.00010662,-0.00025302,0.00001890,0.000002
 91,0.00113968,-0.00214759,0.00018627,-0.02326193,0.01674498,0.00991739
 ,0.23733066,0.00105114,0.00033287,0.00018141,-0.00009579,0.00004546,-0
 .00008229,0.00046383,0.00016584,0.00003340,-0.00282955,-0.00133824,-0.
 00092314,0.00087407,0.00071090,0.00114412,-0.00091648,0.00009259,-0.00
 021190,-0.00068429,-0.00037280,-0.00044010,0.00028851,-0.00000136,-0.0
 0004186,0.00007899,-0.00000131,0.00027515,0.00947710,0.01157312,-0.014
 20600,0.00243477,0.00150759,0.00065051,0.00395352,0.11622772,-0.129784
 42,0.00009336,-0.00009631,-0.00062576,-0.00038440,-0.00003281,0.000111
 65,-0.00010236,-0.00013268,-0.00024527,0.00114659,0.01878365,-0.011357
 56,-0.00115233,-0.01674498,0.01147792,-0.01369669,-0.13071924,0.144044
 14\\0.00023262,0.,0.00013074,-0.00049643,0.,0.00045479,0.00004253,0.,-
 0.00031583,0.00058503,0.,0.00038955,-0.00020518,0.,0.00008551,0.000130
 58,0.,-0.00053862,-0.00018049,0.,-0.00008153,0.00019017,0.,-0.00024475
 ,-0.00010222,0.,0.00025492,-0.00007845,0.,-0.00006695,-0.00007058,0.,-
 0.00018526,-0.00016628,0.,0.00002195,-0.00001156,0.,0.00009415,-0.0000
 0927,0.00000277,0.00003082,-0.00000927,-0.00000277,0.00003082,0.000061
 13,0.,-0.00001914,0.00004384,0.00000570,-0.00002058,0.00004384,-0.0000
 0570,-0.00002058\\\@


 "I COULD HAVE DONE IT IN A MUCH MORE COMPLICATED WAY"
 SAID THE RED QUEEN, IMMENSELY PROUD.

                                      -- LEWIS CARROLL
 Job cpu time:       0 days  0 hours 11 minutes 59.0 seconds.
 File lengths (MBytes):  RWF=     68 Int=      0 D2E=      0 Chk=      3 Scr=      1
 Normal termination of Gaussian 09 at Wed Feb  3 17:24:14 2021.
